Created by /home/xiruan/ATLAS-toolkit/scripts/createLammpsInput.pl on Wed Nov 13 00:29:48 2024

        1440 atoms
         840 bonds
         420 angles

           4 atom types
           1 bond types
           1 angle types

		   0.000000  37.548700 xlo xhi
		   0.000000  37.548700 ylo yhi
		   0.000000  37.548700 zlo zhi

Masses

    1 1.5999E+01 # OW     
    2 1.0080E+00 # HW     
    3 6.9400E+00 # Li+    
    4 3.5450E+01 # Cl-    

Pair Coeffs

    1    0.15550    3.16599 # OW OW 
    2    0.00000    1.00000 # HW HW 
    3    0.33673    1.40940 # Li+ Li+ 
    4    0.01278    4.83045 # Cl- Cl- 

Bond Coeffs

    1     5530        1 # HW OW 

Angle Coeffs

    1     1000   109.47 # HW OW HW 

Atoms

       1        1        1 -0.84760000    4.10878   10.44299   10.42498    0    0    0
       2        1        2  0.42380000    3.27727   10.18786   10.82463    0    0    0
       3        1        2  0.42380000    4.71688   10.51406   11.16077    0    0    0
       4        2        1 -0.84760000    4.10878   29.21734   10.42498    0    0    0
       5        2        2  0.42380000    3.27727   28.96221   10.82463    0    0    0
       6        2        2  0.42380000    4.71688   29.28841   11.16077    0    0    0
       7        3        1 -0.84760000    4.10878   29.21734   29.19933    0    0    0
       8        3        2  0.42380000    3.27727   28.96221   29.59898    0    0    0
       9        3        2  0.42380000    4.71688   29.28841   29.93512    0    0    0
      10        4        1 -0.84760000   22.88313   10.44299   10.42498    0    0    0
      11        4        2  0.42380000   22.05162   10.18786   10.82463    0    0    0
      12        4        2  0.42380000   23.49123   10.51406   11.16077    0    0    0
      13        5        1 -0.84760000   22.86326   33.25135   29.39513    0    0    0
      14        5        2  0.42380000   23.16606   32.36112   29.21615    0    0    0
      15        5        2  0.42380000   23.60762   33.80837   29.16736    0    0    0
      16        6        1 -0.84760000    4.08891   14.47700   10.62078    0    0    0
      17        6        2  0.42380000    4.39171   13.58677   10.44180    0    0    0
      18        6        2  0.42380000    4.83327   15.03402   10.39301    0    0    0
      19        7        1 -0.84760000    4.08891   33.25135   29.39513    0    0    0
      20        7        2  0.42380000    4.39171   32.36112   29.21615    0    0    0
      21        7        2  0.42380000    4.83327   33.80837   29.16736    0    0    0
      22        8        1 -0.84760000   22.86326   14.47700   10.62078    0    0    0
      23        8        2  0.42380000   23.16606   13.58677   10.44180    0    0    0
      24        8        2  0.42380000   23.60762   15.03402   10.39301    0    0    0
      25        9        1 -0.84760000   21.29233    5.40318   22.98357    0    0    0
      26        9        2  0.42380000   20.40400    5.74477   22.88156    0    0    0
      27        9        2  0.42380000   21.57644    5.20321   22.09165    0    0    0
      28       10        1 -0.84760000   21.29233   24.17753   22.98357    0    0    0
      29       10        2  0.42380000   20.40400   24.51912   22.88156    0    0    0
      30       10        2  0.42380000   21.57644   23.97756   22.09165    0    0    0
      31       11        1 -0.84760000    2.51798    5.40318   22.98357    0    0    0
      32       11        2  0.42380000    1.62965    5.74477   22.88156    0    0    0
      33       11        2  0.42380000    2.80209    5.20321   22.09165    0    0    0
      34       12        1 -0.84760000    2.51798   24.17753    4.20922    0    0    0
      35       12        2  0.42380000    1.62965   24.51912    4.10721    0    0    0
      36       12        2  0.42380000    2.80209   23.97756    3.31730    0    0    0
      37       13        1 -0.84760000    2.51798   24.17753   22.98357    0    0    0
      38       13        2  0.42380000    1.62965   24.51912   22.88156    0    0    0
      39       13        2  0.42380000    2.80209   23.97756   22.09165    0    0    0
      40       14        1 -0.84760000    2.51798    5.40318    4.20922    0    0    0
      41       14        2  0.42380000    1.62965    5.74477    4.10721    0    0    0
      42       14        2  0.42380000    2.80209    5.20321    3.31730    0    0    0
      43       15        1 -0.84760000   21.29233    5.40318    4.20922    0    0    0
      44       15        2  0.42380000   20.40400    5.74477    4.10721    0    0    0
      45       15        2  0.42380000   21.57644    5.20321    3.31730    0    0    0
      46       16        1 -0.84760000    9.53310   12.80672    9.55442    0    0    0
      47       16        2  0.42380000    9.46392   11.86572    9.39333    0    0    0
      48       16        2  0.42380000   10.29508   12.89687   10.12668    0    0    0
      49       17        1 -0.84760000   28.30745   31.58107    9.55442    0    0    0
      50       17        2  0.42380000   28.23827   30.64007    9.39333    0    0    0
      51       17        2  0.42380000   29.06943   31.67122   10.12668    0    0    0
      52       18        1 -0.84760000    9.53310   12.80672   28.32877    0    0    0
      53       18        2  0.42380000    9.46392   11.86572   28.16768    0    0    0
      54       18        2  0.42380000   10.29508   12.89687   28.90103    0    0    0
      55       19        1 -0.84760000    9.53310   31.58107    9.55442    0    0    0
      56       19        2  0.42380000    9.46392   30.64007    9.39333    0    0    0
      57       19        2  0.42380000   10.29508   31.67122   10.12668    0    0    0
      58       20        1 -0.84760000    9.53310   31.58107   28.32877    0    0    0
      59       20        2  0.42380000    9.46392   30.64007   28.16768    0    0    0
      60       20        2  0.42380000   10.29508   31.67122   28.90103    0    0    0
      61       21        1 -0.84760000   20.49811    3.41218   30.65443    0    0    0
      62       21        2  0.42380000   20.31840    2.51475   30.93471    0    0    0
      63       21        2  0.42380000   20.09612    3.95936   31.32913    0    0    0
      64       22        1 -0.84760000    1.72376    3.41218   11.88008    0    0    0
      65       23        1 -0.84760000   20.49811   22.18653   11.88008    0    0    0
      66       23        2  0.42380000   20.31840   21.28910   12.16036    0    0    0
      67       23        2  0.42380000   20.09612   22.73371   12.55478    0    0    0
      68       22        2  0.42380000    1.54405    2.51475   12.16036    0    0    0
      69       22        2  0.42380000    1.32177    3.95936   12.55478    0    0    0
      70       24        1 -0.84760000    1.72376    3.41218   30.65443    0    0    0
      71       24        2  0.42380000    1.54405    2.51475   30.93471    0    0    0
      72       24        2  0.42380000    1.32177    3.95936   31.32913    0    0    0
      73       25        1 -0.84760000    1.72376   22.18653   11.88008    0    0    0
      74       25        2  0.42380000    1.54405   21.28910   12.16036    0    0    0
      75       25        2  0.42380000    1.32177   22.73371   12.55478    0    0    0
      76       26        1 -0.84760000   23.46846    3.98633   24.01741    0    0    0
      77       26        2  0.42380000   23.57514    4.88670   24.32428    0    0    0
      78       26        2  0.42380000   22.55770    3.93812   23.72687    0    0    0
      79       27        1 -0.84760000   23.46846   22.76068    5.24306    0    0    0
      80       27        2  0.42380000   23.57514   23.66105    5.54993    0    0    0
      81       27        2  0.42380000   22.55770   22.71247    4.95252    0    0    0
      82       28        1 -0.84760000    4.69411    3.98633   24.01741    0    0    0
      83       28        2  0.42380000    4.80079    4.88670   24.32428    0    0    0
      84       28        2  0.42380000    3.78335    3.93812   23.72687    0    0    0
      85       29        1 -0.84760000    4.69411   22.76068   24.01741    0    0    0
      86       29        2  0.42380000    4.80079   23.66105   24.32428    0    0    0
      87       29        2  0.42380000    3.78335   22.71247   23.72687    0    0    0
      88       30        1 -0.84760000   33.12038   21.88316   25.48850    0    0    0
      89       30        2  0.42380000   33.94134   21.39281   25.53105    0    0    0
      90       30        2  0.42380000   33.15378   22.47292   26.24168    0    0    0
      91       31        1 -0.84760000   14.34603    3.10881    6.71415    0    0    0
      92       31        2  0.42380000   15.16699    2.61846    6.75670    0    0    0
      93       31        2  0.42380000   14.37943    3.69857    7.46733    0    0    0
      94       32        1 -0.84760000   14.34603    3.10881   25.48850    0    0    0
      95       32        2  0.42380000   15.16699    2.61846   25.53105    0    0    0
      96       32        2  0.42380000   14.37943    3.69857   26.24168    0    0    0
      97       33        1 -0.84760000   14.34603   21.88316   25.48850    0    0    0
      98       33        2  0.42380000   15.16699   21.39281   25.53105    0    0    0
      99       33        2  0.42380000   14.37943   22.47292   26.24168    0    0    0
     100       34        1 -0.84760000   33.12038    3.10881    6.71415    0    0    0
     101       34        2  0.42380000   33.94134    2.61846    6.75670    0    0    0
     102       34        2  0.42380000   33.15378    3.69857    7.46733    0    0    0
     103       35        1 -0.84760000   25.30924    6.95496   28.34993    0    0    0
     104       35        2  0.42380000   25.81706    7.45306   28.99043    0    0    0
     105       35        2  0.42380000   25.84056    6.17848   28.17386    0    0    0
     106       36        1 -0.84760000   25.30924   25.72931    9.57558    0    0    0
     107       36        2  0.42380000   25.81706   26.22741   10.21608    0    0    0
     108       36        2  0.42380000   25.84056   24.95283    9.39951    0    0    0
     109       37        1 -0.84760000    6.53489    6.95496    9.57558    0    0    0
     110       37        2  0.42380000    7.04271    7.45306   10.21608    0    0    0
     111       37        2  0.42380000    7.06621    6.17848    9.39951    0    0    0
     112       38        1 -0.84760000    6.53489    6.95496   28.34993    0    0    0
     113       38        2  0.42380000    7.04271    7.45306   28.99043    0    0    0
     114       38        2  0.42380000    7.06621    6.17848   28.17386    0    0    0
     115       39        1 -0.84760000   25.30924    6.95496    9.57558    0    0    0
     116       39        2  0.42380000   25.81706    7.45306   10.21608    0    0    0
     117       39        2  0.42380000   25.84056    6.17848    9.39951    0    0    0
     118       40        1 -0.84760000   24.84313   30.00869   12.01927    0    0    0
     119       40        2  0.42380000   24.51007   30.63558   12.66137    0    0    0
     120       40        2  0.42380000   25.01980   30.53487   11.23943    0    0    0
     121       41        1 -0.84760000   24.84313   30.00869   30.79362    0    0    0
     122       41        2  0.42380000   24.51007   30.63558   31.43572    0    0    0
     123       41        2  0.42380000   25.01980   30.53487   30.01378    0    0    0
     124       42        1 -0.84760000    6.06878   11.23434   12.01927    0    0    0
     125       43        1 -0.84760000    6.06878   11.23434   30.79362    0    0    0
     126       43        2  0.42380000    5.73572   11.86123   31.43572    0    0    0
     127       43        2  0.42380000    6.24545   11.76052   30.01378    0    0    0
     128       42        2  0.42380000    5.73572   11.86123   12.66137    0    0    0
     129       42        2  0.42380000    6.24545   11.76052   11.23943    0    0    0
     130       44        1 -0.84760000    6.06878   30.00869   30.79362    0    0    0
     131       44        2  0.42380000    5.73572   30.63558   31.43572    0    0    0
     132       44        2  0.42380000    6.24545   30.53487   30.01378    0    0    0
     133       45        1 -0.84760000    0.57393   12.39240   21.48922    0    0    0
     134       45        2  0.42380000    0.19672   12.88111   20.75771    0    0    0
     135       45        2  0.42380000    0.83123   13.06493   22.11987    0    0    0
     136       46        1 -0.84760000    0.57393   12.39240    2.71487    0    0    0
     137       46        2  0.42380000    0.19672   12.88111    1.98336    0    0    0
     138       46        2  0.42380000    0.83123   13.06493    3.34552    0    0    0
     139       47        1 -0.84760000    0.57393   31.16675    2.71487    0    0    0
     140       47        2  0.42380000    0.19672   31.65546    1.98336    0    0    0
     141       47        2  0.42380000    0.83123   31.83928    3.34552    0    0    0
     142       48        1 -0.84760000   19.34828   12.39240    2.71487    0    0    0
     143       48        2  0.42380000   18.97107   12.88111    1.98336    0    0    0
     144       48        2  0.42380000   19.60558   13.06493    3.34552    0    0    0
     145       49        1 -0.84760000   36.42522   23.26867    9.87782    0    0    0
     146       49        2  0.42380000   35.47771   23.30257   10.00937    0    0    0
     147       49        2  0.42380000   36.75021   24.08257   10.26276    0    0    0
     148       50        1 -0.84760000   36.42522   23.26867   28.65217    0    0    0
     149       50        2  0.42380000   35.47771   23.30257   28.78372    0    0    0
     150       50        2  0.42380000   36.75021   24.08257   29.03711    0    0    0
     151       51        1 -0.84760000   17.65087    4.49432   28.65217    0    0    0
     152       51        2  0.42380000   16.70336    4.52822   28.78372    0    0    0
     153       51        2  0.42380000   17.97586    5.30822   29.03711    0    0    0
     154       52        1 -0.84760000   17.65087    4.49432    9.87782    0    0    0
     155       52        2  0.42380000   16.70336    4.52822   10.00937    0    0    0
     156       52        2  0.42380000   17.97586    5.30822   10.26276    0    0    0
     157       53        1 -0.84760000   17.65087   23.26867    9.87782    0    0    0
     158       53        2  0.42380000   16.70336   23.30257   10.00937    0    0    0
     159       53        2  0.42380000   17.97586   24.08257   10.26276    0    0    0
     160       54        1 -0.84760000   17.65087   23.26867   28.65217    0    0    0
     161       54        2  0.42380000   16.70336   23.30257   28.78372    0    0    0
     162       54        2  0.42380000   17.97586   24.08257   29.03711    0    0    0
     163       55        1 -0.84760000   32.50868   16.51077   29.23852    0    0    0
     164       55        2  0.42380000   32.52139   16.10700   28.37074    0    0    0
     165       55        2  0.42380000   31.95620   17.28550   29.13466    0    0    0
     166       56        1 -0.84760000   32.50868   35.28512   29.23852    0    0    0
     167       56        2  0.42380000   32.52139   34.88135   28.37074    0    0    0
     168       56        2  0.42380000   31.95620   36.05985   29.13466    0    0    0
     169       57        1 -0.84760000   13.73433   16.51077   10.46417    0    0    0
     170       57        2  0.42380000   13.74704   16.10700    9.59639    0    0    0
     171       57        2  0.42380000   13.18185   17.28550   10.36031    0    0    0
     172       58        1 -0.84760000   13.73433   35.28512   10.46417    0    0    0
     173       58        2  0.42380000   13.74704   34.88135    9.59639    0    0    0
     174       58        2  0.42380000   13.18185   36.05985   10.36031    0    0    0
     175       59        1 -0.84760000   13.73433   35.28512   29.23852    0    0    0
     176       59        2  0.42380000   13.74704   34.88135   28.37074    0    0    0
     177       59        2  0.42380000   13.18185   36.05985   29.13466    0    0    0
     178       60        1 -0.84760000   33.80322   13.23239   24.32753    0    0    0
     179       60        2  0.42380000   33.69285   12.28983   24.45248    0    0    0
     180       60        2  0.42380000   33.80004   13.59396   25.21381    0    0    0
     181       61        1 -0.84760000   33.80322   32.00674    5.55318    0    0    0
     182       61        2  0.42380000   33.69285   31.06418    5.67813    0    0    0
     183       61        2  0.42380000   33.80004   32.36831    6.43946    0    0    0
     184       62        1 -0.84760000   15.02887   13.23239   24.32753    0    0    0
     185       62        2  0.42380000   14.91850   12.28983   24.45248    0    0    0
     186       62        2  0.42380000   15.02569   13.59396   25.21381    0    0    0
     187       63        1 -0.84760000   15.02887   32.00674    5.55318    0    0    0
     188       63        2  0.42380000   14.91850   31.06418    5.67813    0    0    0
     189       63        2  0.42380000   15.02569   32.36831    6.43946    0    0    0
     190       64        1 -0.84760000   33.80322   13.23239    5.55318    0    0    0
     191       64        2  0.42380000   33.69285   12.28983    5.67813    0    0    0
     192       64        2  0.42380000   33.80004   13.59396    6.43946    0    0    0
     193       65        1 -0.84760000   29.33215    5.13062   20.68050    0    0    0
     194       65        2  0.42380000   28.39252    5.29202   20.76575    0    0    0
     195       65        2  0.42380000   29.65048    5.84919   20.13410    0    0    0
     196       66        1 -0.84760000   29.33215   23.90497   20.68050    0    0    0
     197       66        2  0.42380000   28.39252   24.06637   20.76575    0    0    0
     198       66        2  0.42380000   29.65048   24.62354   20.13410    0    0    0
     199       67        1 -0.84760000   10.55780    5.13062   20.68050    0    0    0
     200       67        2  0.42380000    9.61817    5.29202   20.76575    0    0    0
     201       67        2  0.42380000   10.87613    5.84919   20.13410    0    0    0
     202       68        1 -0.84760000   10.55780    5.13062    1.90615    0    0    0
     203       68        2  0.42380000    9.61817    5.29202    1.99140    0    0    0
     204       68        2  0.42380000   10.87613    5.84919    1.35975    0    0    0
     205       69        1 -0.84760000   10.55780   23.90497    1.90615    0    0    0
     206       69        2  0.42380000    9.61817   24.06637    1.99140    0    0    0
     207       69        2  0.42380000   10.87613   24.62354    1.35975    0    0    0
     208       70        1 -0.84760000   10.55780   23.90497   20.68050    0    0    0
     209       70        2  0.42380000    9.61817   24.06637   20.76575    0    0    0
     210       70        2  0.42380000   10.87613   24.62354   20.13410    0    0    0
     211       71        1 -0.84760000   35.85343   28.58683   11.88405    0    0    0
     212       71        2  0.42380000   35.02529   28.65614   11.40907    0    0    0
     213       71        2  0.42380000   36.44848   29.17226   11.41564    0    0    0
     214       72        1 -0.84760000   35.85343   28.58683   30.65840    0    0    0
     215       72        2  0.42380000   35.02529   28.65614   30.18342    0    0    0
     216       72        2  0.42380000   36.44848   29.17226   30.18999    0    0    0
     217       73        1 -0.84760000   17.07908    9.81248   30.65840    0    0    0
     218       73        2  0.42380000   16.25094    9.88179   30.18342    0    0    0
     219       73        2  0.42380000   17.67413   10.39791   30.18999    0    0    0
     220       74        1 -0.84760000   17.07908    9.81248   11.88405    0    0    0
     221       74        2  0.42380000   16.25094    9.88179   11.40907    0    0    0
     222       74        2  0.42380000   17.67413   10.39791   11.41564    0    0    0
     223       75        1 -0.84760000   17.07908   28.58683   11.88405    0    0    0
     224       75        2  0.42380000   16.25094   28.65614   11.40907    0    0    0
     225       75        2  0.42380000   17.67413   29.17226   11.41564    0    0    0
     226       76        1 -0.84760000   17.07908   28.58683   30.65840    0    0    0
     227       76        2  0.42380000   16.25094   28.65614   30.18342    0    0    0
     228       76        2  0.42380000   17.67413   29.17226   30.18999    0    0    0
     229       77        1 -0.84760000   35.85343    9.81248   11.88405    0    0    0
     230       77        2  0.42380000   35.02529    9.88179   11.40907    0    0    0
     231       77        2  0.42380000   36.44848   10.39791   11.41564    0    0    0
     232       78        1 -0.84760000   33.37497   10.42095   24.18731    0    0    0
     233       78        2  0.42380000   32.75622   10.08291   23.53994    0    0    0
     234       78        2  0.42380000   33.35742    9.77693   24.89523    0    0    0
     235       79        1 -0.84760000   33.37497   29.19530    5.41296    0    0    0
     236       79        2  0.42380000   32.75622   28.85726    4.76559    0    0    0
     237       79        2  0.42380000   33.35742   28.55128    6.12088    0    0    0
     238       80        1 -0.84760000   33.37497   29.19530   24.18731    0    0    0
     239       80        2  0.42380000   32.75622   28.85726   23.53994    0    0    0
     240       80        2  0.42380000   33.35742   28.55128   24.89523    0    0    0
     241       81        1 -0.84760000   14.60062   10.42095   24.18731    0    0    0
     242       81        2  0.42380000   13.98187   10.08291   23.53994    0    0    0
     243       81        2  0.42380000   14.58307    9.77693   24.89523    0    0    0
     244       82        1 -0.84760000   14.60062   29.19530    5.41296    0    0    0
     245       82        2  0.42380000   13.98187   28.85726    4.76559    0    0    0
     246       82        2  0.42380000   14.58307   28.55128    6.12088    0    0    0
     247       83        1 -0.84760000   14.60062   29.19530   24.18731    0    0    0
     248       83        2  0.42380000   13.98187   28.85726   23.53994    0    0    0
     249       83        2  0.42380000   14.58307   28.55128   24.89523    0    0    0
     250       84        1 -0.84760000   33.37497   10.42095    5.41296    0    0    0
     251       84        2  0.42380000   32.75622   10.08291    4.76559    0    0    0
     252       84        2  0.42380000   33.35742    9.77693    6.12088    0    0    0
     253       85        1 -0.84760000   32.81763   25.37376   12.82954    0    0    0
     254       85        2  0.42380000   32.40475   26.19913   13.08354    0    0    0
     255       85        2  0.42380000   32.08523   24.78826   12.63718    0    0    0
     256       86        1 -0.84760000   32.81763   25.37376   31.60389    0    0    0
     257       86        2  0.42380000   32.40475   26.19913   31.85789    0    0    0
     258       86        2  0.42380000   32.08523   24.78826   31.41153    0    0    0
     259       87        1 -0.84760000   14.04328    6.59941   31.60389    0    0    0
     260       87        2  0.42380000   13.63040    7.42478   31.85789    0    0    0
     261       87        2  0.42380000   13.31088    6.01391   31.41153    0    0    0
     262       88        1 -0.84760000   14.04328    6.59941   12.82954    0    0    0
     263       89        1 -0.84760000   14.04328   25.37376   12.82954    0    0    0
     264       88        2  0.42380000   13.63040    7.42478   13.08354    0    0    0
     265       89        2  0.42380000   13.63040   26.19913   13.08354    0    0    0
     266       89        2  0.42380000   13.31088   24.78826   12.63718    0    0    0
     267       88        2  0.42380000   13.31088    6.01391   12.63718    0    0    0
     268       90        1 -0.84760000   14.04328   25.37376   31.60389    0    0    0
     269       90        2  0.42380000   13.63040   26.19913   31.85789    0    0    0
     270       90        2  0.42380000   13.31088   24.78826   31.41153    0    0    0
     271       91        1 -0.84760000    6.17656    9.38540   26.46576    0    0    0
     272       91        2  0.42380000    5.77226    8.67312   25.97035    0    0    0
     273       91        2  0.42380000    6.26287    9.04072   27.35456    0    0    0
     274       92        1 -0.84760000    6.17656   28.15975    7.69141    0    0    0
     275       92        2  0.42380000    5.77226   27.44747    7.19600    0    0    0
     276       92        2  0.42380000    6.26287   27.81507    8.58021    0    0    0
     277       93        1 -0.84760000    6.17656    9.38540    7.69141    0    0    0
     278       93        2  0.42380000    5.77226    8.67312    7.19600    0    0    0
     279       93        2  0.42380000    6.26287    9.04072    8.58021    0    0    0
     280       94        1 -0.84760000    6.17656   28.15975   26.46576    0    0    0
     281       94        2  0.42380000    5.77226   27.44747   25.97035    0    0    0
     282       94        2  0.42380000    6.26287   27.81507   27.35456    0    0    0
     283       95        1 -0.84760000   24.95091    9.38540    7.69141    0    0    0
     284       95        2  0.42380000   24.54661    8.67312    7.19600    0    0    0
     285       95        2  0.42380000   25.03722    9.04072    8.58021    0    0    0
     286       96        1 -0.84760000   25.41908   31.84650    9.85533    0    0    0
     287       96        2  0.42380000   25.12191   31.24105    9.17611    0    0    0
     288       96        2  0.42380000   26.36906   31.88424    9.74426    0    0    0
     289       97        1 -0.84760000    6.64473   13.07215   28.62968    0    0    0
     290       97        2  0.42380000    6.34756   12.46670   27.95046    0    0    0
     291       97        2  0.42380000    7.59471   13.10989   28.51861    0    0    0
     292       98        1 -0.84760000    6.64473   31.84650    9.85533    0    0    0
     293       98        2  0.42380000    6.34756   31.24105    9.17611    0    0    0
     294       98        2  0.42380000    7.59471   31.88424    9.74426    0    0    0
     295       99        1 -0.84760000    6.64473   13.07215    9.85533    0    0    0
     296       99        2  0.42380000    6.34756   12.46670    9.17611    0    0    0
     297       99        2  0.42380000    7.59471   13.10989    9.74426    0    0    0
     298      100        1 -0.84760000   24.51092   12.81032   35.28046    0    0    0
     299      100        2  0.42380000   23.61378   13.03432   35.52780    0    0    0
     300      100        2  0.42380000   24.53621   12.93382   34.33160    0    0    0
     301      101        1 -0.84760000   24.51092   31.58467   16.50611    0    0    0
     302      101        2  0.42380000   23.61378   31.80867   16.75345    0    0    0
     303      101        2  0.42380000   24.53621   31.70817   15.55725    0    0    0
     304      102        1 -0.84760000   24.51092   31.58467   35.28046    0    0    0
     305      102        2  0.42380000   23.61378   31.80867   35.52780    0    0    0
     306      102        2  0.42380000   24.53621   31.70817   34.33160    0    0    0
     307      103        1 -0.84760000    5.73657   31.58467   16.50611    0    0    0
     308      103        2  0.42380000    4.83943   31.80867   16.75345    0    0    0
     309      103        2  0.42380000    5.76186   31.70817   15.55725    0    0    0
     310      104        1 -0.84760000    5.73657   31.58467   35.28046    0    0    0
     311      104        2  0.42380000    4.83943   31.80867   35.52780    0    0    0
     312      104        2  0.42380000    5.76186   31.70817   34.33160    0    0    0
     313      105        1 -0.84760000   24.51092   12.81032   16.50611    0    0    0
     314      105        2  0.42380000   23.61378   13.03432   16.75345    0    0    0
     315      105        2  0.42380000   24.53621   12.93382   15.55725    0    0    0
     316      106        1 -0.84760000   29.66098   14.59924   25.16271    0    0    0
     317      106        2  0.42380000   30.10057   15.34168   24.74825    0    0    0
     318      106        2  0.42380000   29.59967   14.84190   26.08660    0    0    0
     319      107        1 -0.84760000   29.66098   33.37359   25.16271    0    0    0
     320      107        2  0.42380000   30.10057   34.11603   24.74825    0    0    0
     321      107        2  0.42380000   29.59967   33.61625   26.08660    0    0    0
     322      108        1 -0.84760000   10.88663   14.59924   25.16271    0    0    0
     323      108        2  0.42380000   11.32622   15.34168   24.74825    0    0    0
     324      108        2  0.42380000   10.82532   14.84190   26.08660    0    0    0
     325      109        1 -0.84760000   10.88663   33.37359    6.38836    0    0    0
     326      109        2  0.42380000   11.32622   34.11603    5.97390    0    0    0
     327      109        2  0.42380000   10.82532   33.61625    7.31225    0    0    0
     328      110        1 -0.84760000   10.88663   14.59924    6.38836    0    0    0
     329      110        2  0.42380000   11.32622   15.34168    5.97390    0    0    0
     330      110        2  0.42380000   10.82532   14.84190    7.31225    0    0    0
     331      111        1 -0.84760000   29.66098   14.59924    6.38836    0    0    0
     332      111        2  0.42380000   30.10057   15.34168    5.97390    0    0    0
     333      111        2  0.42380000   29.59967   14.84190    7.31225    0    0    0
     334      112        1 -0.84760000   35.13316    0.91392   19.50869    0    0    0
     335      112        2  0.42380000   34.82042    1.00660   20.40859    0    0    0
     336      112        2  0.42380000   35.89441    1.49202   19.45843    0    0    0