Created by /home/xiruan/ATLAS-toolkit/scripts/createLammpsInput.pl on Wed Nov 13 00:25:54 2024

        1680 atoms
        1000 bonds
         500 angles

           4 atom types
           1 bond types
           1 angle types

		   0.000000  37.548700 xlo xhi
		   0.000000  37.548700 ylo yhi
		   0.000000  37.548700 zlo zhi

Masses

    1 1.5999E+01 # OW     
    2 1.0080E+00 # HW     
    3 6.9400E+00 # Li+    
    4 3.5450E+01 # Cl-    

Pair Coeffs

    1    0.15550    3.16599 # OW OW 
    2    0.00000    1.00000 # HW HW 
    3    0.33673    1.40940 # Li+ Li+ 
    4    0.01278    4.83045 # Cl- Cl- 

Bond Coeffs

    1     5530        1 # HW OW 

Angle Coeffs

    1     1000   109.47 # HW OW HW 

Atoms

       1        1        1 -0.84760000   11.96039    8.35310    7.66648    0    0    0
       2        2        1 -0.84760000   30.73474    8.35310    7.66648    0    0    0
       3        2        2  0.42380000   30.65415    7.43856    7.39565    0    0    0
       4        2        2  0.42380000   30.32119    8.84981    6.96045    0    0    0
       5        1        2  0.42380000   11.87980    7.43856    7.39565    0    0    0
       6        3        1 -0.84760000   11.96039    8.35310   26.44083    0    0    0
       7        3        2  0.42380000   11.87980    7.43856   26.17000    0    0    0
       8        3        2  0.42380000   11.54684    8.84981   25.73480    0    0    0
       9        1        2  0.42380000   11.54684    8.84981    6.96045    0    0    0
      10        4        1 -0.84760000   11.96039   27.12745    7.66648    0    0    0
      11        4        2  0.42380000   11.87980   26.21291    7.39565    0    0    0
      12        4        2  0.42380000   11.54684   27.62416    6.96045    0    0    0
      13        5        1 -0.84760000   22.86326   14.47700   10.62078    0    0    0
      14        5        2  0.42380000   23.16606   13.58677   10.44180    0    0    0
      15        5        2  0.42380000   23.60762   15.03402   10.39301    0    0    0
      16        6        1 -0.84760000   22.86326   33.25135   10.62078    0    0    0
      17        6        2  0.42380000   23.16606   32.36112   10.44180    0    0    0
      18        6        2  0.42380000   23.60762   33.80837   10.39301    0    0    0
      19        7        1 -0.84760000   22.86326   33.25135   29.39513    0    0    0
      20        7        2  0.42380000   23.16606   32.36112   29.21615    0    0    0
      21        7        2  0.42380000   23.60762   33.80837   29.16736    0    0    0
      22        8        1 -0.84760000    4.08891   14.47700   29.39513    0    0    0
      23        8        2  0.42380000    4.39171   13.58677   29.21615    0    0    0
      24        8        2  0.42380000    4.83327   15.03402   29.16736    0    0    0
      25        9        1 -0.84760000    4.08891   33.25135   10.62078    0    0    0
      26        9        2  0.42380000    4.39171   32.36112   10.44180    0    0    0
      27        9        2  0.42380000    4.83327   33.80837   10.39301    0    0    0
      28       10        1 -0.84760000   29.11362   16.82283   26.72207    0    0    0
      29       10        2  0.42380000   28.49477   17.27858   26.15151    0    0    0
      30       10        2  0.42380000   29.96880   16.97797   26.32104    0    0    0
      31       11        1 -0.84760000   10.33927   16.82283   26.72207    0    0    0
      32       11        2  0.42380000    9.72042   17.27858   26.15151    0    0    0
      33       11        2  0.42380000   11.19445   16.97797   26.32104    0    0    0
      34       12        1 -0.84760000   10.33927   35.59718    7.94772    0    0    0
      35       12        2  0.42380000    9.72042   36.05293    7.37716    0    0    0
      36       12        2  0.42380000   11.19445   35.75232    7.54669    0    0    0
      37       13        1 -0.84760000   10.33927   16.82283    7.94772    0    0    0
      38       14        1 -0.84760000   10.33927   35.59718   26.72207    0    0    0
      39       14        2  0.42380000    9.72042   36.05293   26.15151    0    0    0
      40       14        2  0.42380000   11.19445   35.75232   26.32104    0    0    0
      41       13        2  0.42380000    9.72042   17.27858    7.37716    0    0    0
      42       13        2  0.42380000   11.19445   16.97797    7.54669    0    0    0
      43       15        1 -0.84760000    1.72376    3.41218   11.88008    0    0    0
      44       16        1 -0.84760000   20.49811    3.41218   11.88008    0    0    0
      45       16        2  0.42380000   20.31840    2.51475   12.16036    0    0    0
      46       16        2  0.42380000   20.09612    3.95936   12.55478    0    0    0
      47       15        2  0.42380000    1.54405    2.51475   12.16036    0    0    0
      48       15        2  0.42380000    1.32177    3.95936   12.55478    0    0    0
      49       17        1 -0.84760000   20.49811    3.41218   30.65443    0    0    0
      50       17        2  0.42380000   20.31840    2.51475   30.93471    0    0    0
      51       17        2  0.42380000   20.09612    3.95936   31.32913    0    0    0
      52       18        1 -0.84760000   20.49811   22.18653   11.88008    0    0    0
      53       18        2  0.42380000   20.31840   21.28910   12.16036    0    0    0
      54       18        2  0.42380000   20.09612   22.73371   12.55478    0    0    0
      55       19        1 -0.84760000    1.72376    3.41218   30.65443    0    0    0
      56       19        2  0.42380000    1.54405    2.51475   30.93471    0    0    0
      57       19        2  0.42380000    1.32177    3.95936   31.32913    0    0    0
      58       20        1 -0.84760000    1.72376   22.18653   11.88008    0    0    0
      59       20        2  0.42380000    1.54405   21.28910   12.16036    0    0    0
      60       20        2  0.42380000    1.32177   22.73371   12.55478    0    0    0
      61       21        1 -0.84760000    1.72376   22.18653   30.65443    0    0    0
      62       21        2  0.42380000    1.54405   21.28910   30.93471    0    0    0
      63       21        2  0.42380000    1.32177   22.73371   31.32913    0    0    0
      64       22        1 -0.84760000   23.46846    3.98633    5.24306    0    0    0
      65       22        2  0.42380000   23.57514    4.88670    5.54993    0    0    0
      66       22        2  0.42380000   22.55770    3.93812    4.95252    0    0    0
      67       23        1 -0.84760000   23.46846    3.98633   24.01741    0    0    0
      68       23        2  0.42380000   23.57514    4.88670   24.32428    0    0    0
      69       23        2  0.42380000   22.55770    3.93812   23.72687    0    0    0
      70       24        1 -0.84760000    4.69411    3.98633    5.24306    0    0    0
      71       24        2  0.42380000    4.80079    4.88670    5.54993    0    0    0
      72       24        2  0.42380000    3.78335    3.93812    4.95252    0    0    0
      73       25        1 -0.84760000   23.46846   22.76068    5.24306    0    0    0
      74       25        2  0.42380000   23.57514   23.66105    5.54993    0    0    0
      75       25        2  0.42380000   22.55770   22.71247    4.95252    0    0    0
      76       26        1 -0.84760000   23.46846   22.76068   24.01741    0    0    0
      77       26        2  0.42380000   23.57514   23.66105   24.32428    0    0    0
      78       26        2  0.42380000   22.55770   22.71247   23.72687    0    0    0
      79       27        1 -0.84760000    4.69411    3.98633   24.01741    0    0    0
      80       27        2  0.42380000    4.80079    4.88670   24.32428    0    0    0
      81       27        2  0.42380000    3.78335    3.93812   23.72687    0    0    0
      82       28        1 -0.84760000    4.69411   22.76068   24.01741    0    0    0
      83       28        2  0.42380000    4.80079   23.66105   24.32428    0    0    0
      84       28        2  0.42380000    3.78335   22.71247   23.72687    0    0    0
      85       29        1 -0.84760000   25.30924    6.95496    9.57558    0    0    0
      86       29        2  0.42380000   25.81706    7.45306   10.21608    0    0    0
      87       29        2  0.42380000   25.84056    6.17848    9.39951    0    0    0
      88       30        1 -0.84760000   25.30924    6.95496   28.34993    0    0    0
      89       30        2  0.42380000   25.81706    7.45306   28.99043    0    0    0
      90       30        2  0.42380000   25.84056    6.17848   28.17386    0    0    0
      91       31        1 -0.84760000   25.30924   25.72931    9.57558    0    0    0
      92       31        2  0.42380000   25.81706   26.22741   10.21608    0    0    0
      93       31        2  0.42380000   25.84056   24.95283    9.39951    0    0    0
      94       32        1 -0.84760000    6.53489    6.95496    9.57558    0    0    0
      95       32        2  0.42380000    7.04271    7.45306   10.21608    0    0    0
      96       32        2  0.42380000    7.06621    6.17848    9.39951    0    0    0
      97       33        1 -0.84760000    6.53489    6.95496   28.34993    0    0    0
      98       33        2  0.42380000    7.04271    7.45306   28.99043    0    0    0
      99       33        2  0.42380000    7.06621    6.17848   28.17386    0    0    0
     100       34        1 -0.84760000    6.53489   25.72931    9.57558    0    0    0
     101       34        2  0.42380000    7.04271   26.22741   10.21608    0    0    0
     102       34        2  0.42380000    7.06621   24.95283    9.39951    0    0    0
     103       35        1 -0.84760000    6.53489   25.72931   28.34993    0    0    0
     104       35        2  0.42380000    7.04271   26.22741   28.99043    0    0    0
     105       35        2  0.42380000    7.06621   24.95283   28.17386    0    0    0
     106       36        1 -0.84760000   24.05504   13.20242   13.83419    0    0    0
     107       36        2  0.42380000   24.67244   13.87752   13.55263    0    0    0
     108       36        2  0.42380000   23.19435   13.61121   13.74294    0    0    0
     109       37        1 -0.84760000   24.05504   13.20242   32.60854    0    0    0
     110       37        2  0.42380000   24.67244   13.87752   32.32698    0    0    0
     111       37        2  0.42380000   23.19435   13.61121   32.51729    0    0    0
     112       38        1 -0.84760000   24.05504   31.97677   13.83419    0    0    0
     113       38        2  0.42380000   24.67244   32.65187   13.55263    0    0    0
     114       38        2  0.42380000   23.19435   32.38556   13.74294    0    0    0
     115       39        1 -0.84760000   24.05504   31.97677   32.60854    0    0    0
     116       39        2  0.42380000   24.67244   32.65187   32.32698    0    0    0
     117       39        2  0.42380000   23.19435   32.38556   32.51729    0    0    0
     118       40        1 -0.84760000    5.28069   13.20242   13.83419    0    0    0
     119       40        2  0.42380000    5.89809   13.87752   13.55263    0    0    0
     120       40        2  0.42380000    4.42000   13.61121   13.74294    0    0    0
     121       41        1 -0.84760000    5.28069   13.20242   32.60854    0    0    0
     122       41        2  0.42380000    5.89809   13.87752   32.32698    0    0    0
     123       41        2  0.42380000    4.42000   13.61121   32.51729    0    0    0
     124       42        1 -0.84760000    5.28069   31.97677   32.60854    0    0    0
     125       42        2  0.42380000    5.89809   32.65187   32.32698    0    0    0
     126       42        2  0.42380000    4.42000   32.38556   32.51729    0    0    0
     127       43        1 -0.84760000   34.97280   14.66636   11.74965    0    0    0
     128       43        2  0.42380000   34.28915   15.33627   11.74132    0    0    0
     129       43        2  0.42380000   35.51223   14.86442   10.98414    0    0    0
     130       44        1 -0.84760000   34.97280   14.66636   30.52400    0    0    0
     131       44        2  0.42380000   34.28915   15.33627   30.51567    0    0    0
     132       44        2  0.42380000   35.51223   14.86442   29.75849    0    0    0
     133       45        1 -0.84760000   34.97280   33.44071   11.74965    0    0    0
     134       45        2  0.42380000   34.28915   34.11062   11.74132    0    0    0
     135       45        2  0.42380000   35.51223   33.63877   10.98414    0    0    0
     136       46        1 -0.84760000   34.97280   33.44071   30.52400    0    0    0
     137       46        2  0.42380000   34.28915   34.11062   30.51567    0    0    0
     138       46        2  0.42380000   35.51223   33.63877   29.75849    0    0    0
     139       47        1 -0.84760000   16.19845   14.66636   11.74965    0    0    0
     140       47        2  0.42380000   15.51480   15.33627   11.74132    0    0    0
     141       47        2  0.42380000   16.73788   14.86442   10.98414    0    0    0
     142       48        1 -0.84760000   16.19845   33.44071   11.74965    0    0    0
     143       48        2  0.42380000   15.51480   34.11062   11.74132    0    0    0
     144       48        2  0.42380000   16.73788   33.63877   10.98414    0    0    0
     145       49        1 -0.84760000   26.95717    0.79404    8.17342    0    0    0
     146       49        2  0.42380000   27.26467    0.23873    7.45697    0    0    0
     147       49        2  0.42380000   26.02724    0.92849    7.99072    0    0    0
     148       50        1 -0.84760000   26.95717   19.56839   26.94777    0    0    0
     149       50        2  0.42380000   27.26467   19.01308   26.23132    0    0    0
     150       50        2  0.42380000   26.02724   19.70284   26.76507    0    0    0
     151       51        1 -0.84760000    8.18282    0.79404    8.17342    0    0    0
     152       51        2  0.42380000    8.49032    0.23873    7.45697    0    0    0
     153       51        2  0.42380000    7.25289    0.92849    7.99072    0    0    0
     154       52        1 -0.84760000    8.18282   19.56839    8.17342    0    0    0
     155       52        2  0.42380000    8.49032   19.01308    7.45697    0    0    0
     156       52        2  0.42380000    7.25289   19.70284    7.99072    0    0    0
     157       53        1 -0.84760000   32.50868   16.51077   29.23852    0    0    0
     158       53        2  0.42380000   32.52139   16.10700   28.37074    0    0    0
     159       53        2  0.42380000   31.95620   17.28550   29.13466    0    0    0
     160       54        1 -0.84760000   13.73433   16.51077   10.46417    0    0    0
     161       54        2  0.42380000   13.74704   16.10700    9.59639    0    0    0
     162       54        2  0.42380000   13.18185   17.28550   10.36031    0    0    0
     163       55        1 -0.84760000   13.73433   35.28512   29.23852    0    0    0
     164       55        2  0.42380000   13.74704   34.88135   28.37074    0    0    0
     165       55        2  0.42380000   13.18185   36.05985   29.13466    0    0    0
     166       56        1 -0.84760000   23.66377    6.15972   11.47131    0    0    0
     167       56        2  0.42380000   24.21523    6.26925   10.69664    0    0    0
     168       56        2  0.42380000   24.17812    6.53348   12.18683    0    0    0
     169       57        1 -0.84760000   23.66377    6.15972   30.24566    0    0    0
     170       57        2  0.42380000   24.21523    6.26925   29.47099    0    0    0
     171       57        2  0.42380000   24.17812    6.53348   30.96118    0    0    0
     172       58        1 -0.84760000   23.66377   24.93407   11.47131    0    0    0
     173       58        2  0.42380000   24.21523   25.04360   10.69664    0    0    0
     174       58        2  0.42380000   24.17812   25.30783   12.18683    0    0    0
     175       59        1 -0.84760000    4.88942    6.15972   30.24566    0    0    0
     176       59        2  0.42380000    5.44088    6.26925   29.47099    0    0    0
     177       59        2  0.42380000    5.40377    6.53348   30.96118    0    0    0
     178       60        1 -0.84760000    4.88942   24.93407   11.47131    0    0    0
     179       60        2  0.42380000    5.44088   25.04360   10.69664    0    0    0
     180       60        2  0.42380000    5.40377   25.30783   12.18683    0    0    0
     181       61        1 -0.84760000    4.88942   24.93407   30.24566    0    0    0
     182       61        2  0.42380000    5.44088   25.04360   29.47099    0    0    0
     183       61        2  0.42380000    5.40377   25.30783   30.96118    0    0    0
     184       62        1 -0.84760000   33.50764   16.64534   32.29199    0    0    0
     185       62        2  0.42380000   33.03070   17.45256   32.09925    0    0    0
     186       62        2  0.42380000   32.82382   15.99317   32.44461    0    0    0
     187       63        1 -0.84760000   33.50764   35.41969   13.51764    0    0    0
     188       63        2  0.42380000   33.03070   36.22691   13.32490    0    0    0
     189       63        2  0.42380000   32.82382   34.76752   13.67026    0    0    0
     190       64        1 -0.84760000   33.50764   35.41969   32.29199    0    0    0
     191       64        2  0.42380000   33.03070   36.22691   32.09925    0    0    0
     192       64        2  0.42380000   32.82382   34.76752   32.44461    0    0    0
     193       65        1 -0.84760000   14.73329   16.64534   32.29199    0    0    0
     194       65        2  0.42380000   14.25635   17.45256   32.09925    0    0    0
     195       65        2  0.42380000   14.04947   15.99317   32.44461    0    0    0
     196       66        1 -0.84760000   14.73329   16.64534   13.51764    0    0    0
     197       66        2  0.42380000   14.25635   17.45256   13.32490    0    0    0
     198       66        2  0.42380000   14.04947   15.99317   13.67026    0    0    0
     199       67        1 -0.84760000   14.73329   35.41969   32.29199    0    0    0
     200       67        2  0.42380000   14.25635   36.22691   32.09925    0    0    0
     201       67        2  0.42380000   14.04947   34.76752   32.44461    0    0    0
     202       68        1 -0.84760000   35.13316    0.91392    0.73434    0    0    0
     203       68        2  0.42380000   34.82042    1.00660    1.63424    0    0    0
     204       68        2  0.42380000   35.89441    1.49202    0.68408    0    0    0
     205       69        1 -0.84760000   35.13316    0.91392   19.50869    0    0    0
     206       69        2  0.42380000   34.82042    1.00660   20.40859    0    0    0
     207       69        2  0.42380000   35.89441    1.49202   19.45843    0    0    0
     208       70        1 -0.84760000   35.13316   19.68827    0.73434    0    0    0
     209       70        2  0.42380000   34.82042   19.78095    1.63424    0    0    0
     210       70        2  0.42380000   35.89441   20.26637    0.68408    0    0    0
     211       71        1 -0.84760000   16.35881    0.91392   19.50869    0    0    0
     212       71        2  0.42380000   16.04607    1.00660   20.40859    0    0    0
     213       71        2  0.42380000   17.12006    1.49202   19.45843    0    0    0
     214       72        1 -0.84760000   16.35881    0.91392    0.73434    0    0    0
     215       72        2  0.42380000   16.04607    1.00660    1.63424    0    0    0
     216       72        2  0.42380000   17.12006    1.49202    0.68408    0    0    0
     217       73        1 -0.84760000   16.35881   19.68827    0.73434    0    0    0
     218       73        2  0.42380000   16.04607   19.78095    1.63424    0    0    0
     219       73        2  0.42380000   17.12006   20.26637    0.68408    0    0    0
     220       74        1 -0.84760000   16.35881   19.68827   19.50869    0    0    0
     221       74        2  0.42380000   16.04607   19.78095   20.40859    0    0    0
     222       74        2  0.42380000   17.12006   20.26637   19.45843    0    0    0
     223       75        1 -0.84760000   20.53467   13.15143    7.40955    0    0    0
     224       75        2  0.42380000   20.12748   13.29289    6.55491    0    0    0
     225       75        2  0.42380000   21.42597   12.86745    7.20667    0    0    0
     226       76        1 -0.84760000   20.53467   31.92578    7.40955    0    0    0
     227       76        2  0.42380000   20.12748   32.06724    6.55491    0    0    0
     228       76        2  0.42380000   21.42597   31.64180    7.20667    0    0    0
     229       77        1 -0.84760000   20.53467   31.92578   26.18390    0    0    0
     230       77        2  0.42380000   20.12748   32.06724   25.32926    0    0    0
     231       77        2  0.42380000   21.42597   31.64180   25.98102    0    0    0
     232       78        1 -0.84760000    1.76032   13.15143   26.18390    0    0    0
     233       78        2  0.42380000    1.35313   13.29289   25.32926    0    0    0
     234       78        2  0.42380000    2.65162   12.86745   25.98102    0    0    0
     235       79        1 -0.84760000    1.76032   13.15143    7.40955    0    0    0
     236       79        2  0.42380000    1.35313   13.29289    6.55491    0    0    0
     237       79        2  0.42380000    2.65162   12.86745    7.20667    0    0    0
     238       80        1 -0.84760000    1.76032   31.92578    7.40955    0    0    0
     239       80        2  0.42380000    1.35313   32.06724    6.55491    0    0    0
     240       80        2  0.42380000    2.65162   31.64180    7.20667    0    0    0
     241       81        1 -0.84760000    1.76032   31.92578   26.18390    0    0    0
     242       81        2  0.42380000    1.35313   32.06724   25.32926    0    0    0
     243       81        2  0.42380000    2.65162   31.64180   25.98102    0    0    0
     244       82        1 -0.84760000   36.49089   13.59782   15.74678    0    0    0
     245       82        2  0.42380000   36.61719   13.35901   14.82850    0    0    0
     246       82        2  0.42380000   36.53302   12.76627   16.21899    0    0    0
     247       83        1 -0.84760000   36.49089   13.59782   34.52113    0    0    0
     248       83        2  0.42380000   36.61719   13.35901   33.60285    0    0    0
     249       83        2  0.42380000   36.53302   12.76627   34.99334    0    0    0
     250       84        1 -0.84760000   36.49089   32.37217   15.74678    0    0    0
     251       84        2  0.42380000   36.61719   32.13336   14.82850    0    0    0
     252       84        2  0.42380000   36.53302   31.54062   16.21899    0    0    0
     253       85        1 -0.84760000   17.71654   13.59782   34.52113    0    0    0
     254       85        2  0.42380000   17.84284   13.35901   33.60285    0    0    0
     255       85        2  0.42380000   17.75867   12.76627   34.99334    0    0    0
     256       86        1 -0.84760000   17.71654   13.59782   15.74678    0    0    0
     257       86        2  0.42380000   17.84284   13.35901   14.82850    0    0    0
     258       86        2  0.42380000   17.75867   12.76627   16.21899    0    0    0
     259       87        1 -0.84760000   17.71654   32.37217   15.74678    0    0    0
     260       87        2  0.42380000   17.84284   32.13336   14.82850    0    0    0
     261       87        2  0.42380000   17.75867   31.54062   16.21899    0    0    0
     262       88        1 -0.84760000   32.32800   17.58615    3.74466    0    0    0
     263       88        2  0.42380000   32.16811   17.29645    4.64284    0    0    0
     264       88        2  0.42380000   32.16267   16.81017    3.20918    0    0    0
     265       89        1 -0.84760000   32.32800   17.58615   22.51901    0    0    0
     266       89        2  0.42380000   32.16811   17.29645   23.41719    0    0    0
     267       89        2  0.42380000   32.16267   16.81017   21.98353    0    0    0
     268       90        1 -0.84760000   32.32800   36.36050   22.51901    0    0    0
     269       90        2  0.42380000   32.16811   36.07080   23.41719    0    0    0
     270       90        2  0.42380000   32.16267   35.58452   21.98353    0    0    0
     271       91        1 -0.84760000   13.55365   17.58615    3.74466    0    0    0
     272       91        2  0.42380000   13.39376   17.29645    4.64284    0    0    0
     273       91        2  0.42380000   13.38832   16.81017    3.20918    0    0    0
     274       92        1 -0.84760000   13.55365   36.36050   22.51901    0    0    0
     275       92        2  0.42380000   13.39376   36.07080   23.41719    0    0    0
     276       92        2  0.42380000   13.38832   35.58452   21.98353    0    0    0
     277       93        1 -0.84760000   31.59561   16.72118   25.15366    0    0    0
     278       93        2  0.42380000   32.05130   15.94012   25.46752    0    0    0
     279       93        2  0.42380000   31.93486   17.43186   25.69778    0    0    0
     280       94        1 -0.84760000   31.59561   35.49553    6.37931    0    0    0
     281       94        2  0.42380000   32.05130   34.71447    6.69317    0    0    0
     282       94        2  0.42380000   31.93486   36.20621    6.92343    0    0    0
     283       95        1 -0.84760000   31.59561   35.49553   25.15366    0    0    0
     284       95        2  0.42380000   32.05130   34.71447   25.46752    0    0    0
     285       95        2  0.42380000   31.93486   36.20621   25.69778    0    0    0
     286       96        1 -0.84760000   12.82126   16.72118   25.15366    0    0    0
     287       96        2  0.42380000   13.27695   15.94012   25.46752    0    0    0
     288       96        2  0.42380000   13.16051   17.43186   25.69778    0    0    0
     289       97        1 -0.84760000   12.82126   16.72118    6.37931    0    0    0
     290       97        2  0.42380000   13.27695   15.94012    6.69317    0    0    0
     291       97        2  0.42380000   13.16051   17.43186    6.92343    0    0    0
     292       98        1 -0.84760000   12.82126   35.49553   25.15366    0    0    0
     293       98        2  0.42380000   13.27695   34.71447   25.46752    0    0    0
     294       98        2  0.42380000   13.16051   36.20621   25.69778    0    0    0
     295       99        1 -0.84760000   36.34329    5.65107   35.48610    0    0    0
     296       99        2  0.42380000   35.72771    6.15903   34.95765    0    0    0
     297       99        2  0.42380000   36.02293    4.75090   35.42870    0    0    0
     298      100        1 -0.84760000   36.34329   24.42542   16.71175    0    0    0
     299      100        2  0.42380000   35.72771   24.93338   16.18330    0    0    0
     300      100        2  0.42380000   36.02293   23.52525   16.65435    0    0    0
     301      101        1 -0.84760000   36.34329   24.42542   35.48610    0    0    0
     302      101        2  0.42380000   35.72771   24.93338   34.95765    0    0    0
     303      101        2  0.42380000   36.02293   23.52525   35.42870    0    0    0
     304      102        1 -0.84760000   17.56894    5.65107   35.48610    0    0    0
     305      102        2  0.42380000   16.95336    6.15903   34.95765    0    0    0
     306      102        2  0.42380000   17.24858    4.75090   35.42870    0    0    0
     307      103        1 -0.84760000   17.56894    5.65107   16.71175    0    0    0
     308      103        2  0.42380000   16.95336    6.15903   16.18330    0    0    0
     309      103        2  0.42380000   17.24858    4.75090   16.65435    0    0    0
     310      104        1 -0.84760000   17.56894   24.42542   16.71175    0    0    0
     311      104        2  0.42380000   16.95336   24.93338   16.18330    0    0    0
     312      104        2  0.42380000   17.24858   23.52525   16.65435    0    0    0
     313      105        1 -0.84760000   17.56894   24.42542   35.48610    0    0    0
     314      105        2  0.42380000   16.95336   24.93338   34.95765    0    0    0
     315      105        2  0.42380000   17.24858   23.52525   35.42870    0    0    0
     316      106        1 -0.84760000   24.11774    1.62340    8.57444    0    0    0
     317      106        2  0.42380000   23.67455    2.40436    8.24289    0    0    0
     318      106        2  0.42380000   24.67624    1.94639    9.28153    0    0    0
     319      107        1 -0.84760000   24.11774   20.39775    8.57444    0    0    0
     320      107        2  0.42380000   23.67455   21.17871    8.24289    0    0    0
     321      107        2  0.42380000   24.67624   20.72074    9.28153    0    0    0
     322      108        1 -0.84760000   24.11774   20.39775   27.34879    0    0    0
     323      108        2  0.42380000   23.67455   21.17871   27.01724    0    0    0
     324      108        2  0.42380000   24.67624   20.72074   28.05588    0    0    0
     325      109        1 -0.84760000    5.34339    1.62340   27.34879    0    0    0
     326      109        2  0.42380000    4.90020    2.40436   27.01724    0    0    0
     327      109        2  0.42380000    5.90189    1.94639   28.05588    0    0    0
     328      110        1 -0.84760000    5.34339    1.62340    8.57444    0    0    0
     329      110        2  0.42380000    4.90020    2.40436    8.24289    0    0    0
     330      110        2  0.42380000    5.90189    1.94639    9.28153    0    0    0
     331      111        1 -0.84760000    5.34339   20.39775   27.34879    0    0    0
     332      111        2  0.42380000    4.90020   21.17871   27.01724    0    0    0
     333      111        2  0.42380000    5.90189   20.72074   28.05588    0    0    0
     334      112        1 -0.84760000   30.50014    7.21133   17.40752    0    0    0
     335      112        2  0.42380000   30.82548    6.37770   17.06774    0    0    0
     336      112        2  0.42380000   31.28817    7.73418   17.55535    0    0    0