Created by /home/xiruan/ATLAS-toolkit/scripts/createLammpsInput.pl on Mon Dec 16 15:29:05 2024

        3048 atoms
        2008 bonds
        1004 angles

           4 atom types
           1 bond types
           1 angle types

		   0.000000  37.548700 xlo xhi
		   0.000000  37.548700 ylo yhi
		   0.000000  37.548700 zlo zhi

Masses

    1 1.5999E+01 # OW     
    2 1.0080E+00 # HW     
    3 6.9400E+00 # Li+    
    4 3.5450E+01 # Cl-    

Pair Coeffs

    1    0.15550    3.16599 # OW OW 
    2    0.00000    1.00000 # HW HW 
    3    0.33673    1.40940 # Li+ Li+ 
    4    0.01278    4.83045 # Cl- Cl- 

Bond Coeffs

    1     5530        1 # HW OW 

Angle Coeffs

    1     1000   109.47 # HW OW HW 

Atoms

       1        1        1 -0.84760000   11.96039    8.35310    7.66648    0    0    0
       2        2        1 -0.84760000   11.96039   27.12745   26.44083    0    0    0
       3        2        2  0.42380000   11.87980   26.21291   26.17000    0    0    0
       4        2        2  0.42380000   11.54684   27.62416   25.73480    0    0    0
       5        3        1 -0.84760000   30.73474    8.35310    7.66648    0    0    0
       6        3        2  0.42380000   30.65415    7.43856    7.39565    0    0    0
       7        3        2  0.42380000   30.32119    8.84981    6.96045    0    0    0
       8        4        1 -0.84760000   30.73474    8.35310   26.44083    0    0    0
       9        4        2  0.42380000   30.65415    7.43856   26.17000    0    0    0
      10        4        2  0.42380000   30.32119    8.84981   25.73480    0    0    0
      11        1        2  0.42380000   11.87980    7.43856    7.39565    0    0    0
      12        5        1 -0.84760000   30.73474   27.12745    7.66648    0    0    0
      13        5        2  0.42380000   30.65415   26.21291    7.39565    0    0    0
      14        5        2  0.42380000   30.32119   27.62416    6.96045    0    0    0
      15        6        1 -0.84760000   30.73474   27.12745   26.44083    0    0    0
      16        6        2  0.42380000   30.65415   26.21291   26.17000    0    0    0
      17        6        2  0.42380000   30.32119   27.62416   25.73480    0    0    0
      18        1        2  0.42380000   11.54684    8.84981    6.96045    0    0    0
      19        7        1 -0.84760000   11.96039    8.35310   26.44083    0    0    0
      20        7        2  0.42380000   11.87980    7.43856   26.17000    0    0    0
      21        7        2  0.42380000   11.54684    8.84981   25.73480    0    0    0
      22        8        1 -0.84760000   11.96039   27.12745    7.66648    0    0    0
      23        8        2  0.42380000   11.87980   26.21291    7.39565    0    0    0
      24        8        2  0.42380000   11.54684   27.62416    6.96045    0    0    0
      25        9        1 -0.84760000   10.09220   28.90536   28.32175    0    0    0
      26        9        2  0.42380000    9.31641   28.42540   28.61161    0    0    0
      27        9        2  0.42380000   10.74349   28.22592   28.14737    0    0    0
      28       10        1 -0.84760000   28.86655   10.13101    9.54740    0    0    0
      29       10        2  0.42380000   28.09076    9.65105    9.83726    0    0    0
      30       10        2  0.42380000   29.51784    9.45157    9.37302    0    0    0
      31       11        1 -0.84760000   28.86655   10.13101   28.32175    0    0    0
      32       11        2  0.42380000   28.09076    9.65105   28.61161    0    0    0
      33       11        2  0.42380000   29.51784    9.45157   28.14737    0    0    0
      34       12        1 -0.84760000   28.86655   28.90536    9.54740    0    0    0
      35       12        2  0.42380000   28.09076   28.42540    9.83726    0    0    0
      36       12        2  0.42380000   29.51784   28.22592    9.37302    0    0    0
      37       13        1 -0.84760000   28.86655   28.90536   28.32175    0    0    0
      38       13        2  0.42380000   28.09076   28.42540   28.61161    0    0    0
      39       13        2  0.42380000   29.51784   28.22592   28.14737    0    0    0
      40       14        1 -0.84760000   10.09220   10.13101   28.32175    0    0    0
      41       14        2  0.42380000    9.31641    9.65105   28.61161    0    0    0
      42       14        2  0.42380000   10.74349    9.45157   28.14737    0    0    0
      43       15        1 -0.84760000   10.09220   10.13101    9.54740    0    0    0
      44       15        2  0.42380000    9.31641    9.65105    9.83726    0    0    0
      45       15        2  0.42380000   10.74349    9.45157    9.37302    0    0    0
      46       16        1 -0.84760000   10.09220   28.90536    9.54740    0    0    0
      47       16        2  0.42380000    9.31641   28.42540    9.83726    0    0    0
      48       16        2  0.42380000   10.74349   28.22592    9.37302    0    0    0
      49       17        1 -0.84760000    4.10878   29.21734   29.19933    0    0    0
      50       17        2  0.42380000    3.27727   28.96221   29.59898    0    0    0
      51       17        2  0.42380000    4.71688   29.28841   29.93512    0    0    0
      52       18        1 -0.84760000   22.88313   10.44299   10.42498    0    0    0
      53       18        2  0.42380000   22.05162   10.18786   10.82463    0    0    0
      54       18        2  0.42380000   23.49123   10.51406   11.16077    0    0    0
      55       19        1 -0.84760000   22.88313   10.44299   29.19933    0    0    0
      56       19        2  0.42380000   22.05162   10.18786   29.59898    0    0    0
      57       19        2  0.42380000   23.49123   10.51406   29.93512    0    0    0
      58       20        1 -0.84760000   22.88313   29.21734   10.42498    0    0    0
      59       20        2  0.42380000   22.05162   28.96221   10.82463    0    0    0
      60       20        2  0.42380000   23.49123   29.28841   11.16077    0    0    0
      61       21        1 -0.84760000   22.88313   29.21734   29.19933    0    0    0
      62       21        2  0.42380000   22.05162   28.96221   29.59898    0    0    0
      63       21        2  0.42380000   23.49123   29.28841   29.93512    0    0    0
      64       22        1 -0.84760000    4.10878   10.44299   29.19933    0    0    0
      65       22        2  0.42380000    3.27727   10.18786   29.59898    0    0    0
      66       22        2  0.42380000    4.71688   10.51406   29.93512    0    0    0
      67       23        1 -0.84760000    4.10878   10.44299   10.42498    0    0    0
      68       24        1 -0.84760000    4.10878   29.21734   10.42498    0    0    0
      69       24        2  0.42380000    3.27727   28.96221   10.82463    0    0    0
      70       24        2  0.42380000    4.71688   29.28841   11.16077    0    0    0
      71       23        2  0.42380000    3.27727   10.18786   10.82463    0    0    0
      72       23        2  0.42380000    4.71688   10.51406   11.16077    0    0    0
      73       25        1 -0.84760000    4.08891   14.47700   10.62078    0    0    0
      74       25        2  0.42380000    4.39171   13.58677   10.44180    0    0    0
      75       26        1 -0.84760000    4.08891   33.25135   29.39513    0    0    0
      76       26        2  0.42380000    4.39171   32.36112   29.21615    0    0    0
      77       26        2  0.42380000    4.83327   33.80837   29.16736    0    0    0
      78       25        2  0.42380000    4.83327   15.03402   10.39301    0    0    0
      79       27        1 -0.84760000   22.86326   14.47700   10.62078    0    0    0
      80       27        2  0.42380000   23.16606   13.58677   10.44180    0    0    0
      81       27        2  0.42380000   23.60762   15.03402   10.39301    0    0    0
      82       28        1 -0.84760000   22.86326   14.47700   29.39513    0    0    0
      83       28        2  0.42380000   23.16606   13.58677   29.21615    0    0    0
      84       28        2  0.42380000   23.60762   15.03402   29.16736    0    0    0
      85       29        1 -0.84760000   22.86326   33.25135   10.62078    0    0    0
      86       29        2  0.42380000   23.16606   32.36112   10.44180    0    0    0
      87       29        2  0.42380000   23.60762   33.80837   10.39301    0    0    0
      88       30        1 -0.84760000   22.86326   33.25135   29.39513    0    0    0
      89       30        2  0.42380000   23.16606   32.36112   29.21615    0    0    0
      90       30        2  0.42380000   23.60762   33.80837   29.16736    0    0    0
      91       31        1 -0.84760000    4.08891   14.47700   29.39513    0    0    0
      92       31        2  0.42380000    4.39171   13.58677   29.21615    0    0    0
      93       31        2  0.42380000    4.83327   15.03402   29.16736    0    0    0
      94       32        1 -0.84760000    4.08891   33.25135   10.62078    0    0    0
      95       32        2  0.42380000    4.39171   32.36112   10.44180    0    0    0
      96       32        2  0.42380000    4.83327   33.80837   10.39301    0    0    0
      97       33        1 -0.84760000   10.33927   35.59718   26.72207    0    0    0
      98       33        2  0.42380000    9.72042   36.05293   26.15151    0    0    0
      99       33        2  0.42380000   11.19445   35.75232   26.32104    0    0    0
     100       34        1 -0.84760000   10.33927   16.82283    7.94772    0    0    0
     101       34        2  0.42380000    9.72042   17.27858    7.37716    0    0    0
     102       34        2  0.42380000   11.19445   16.97797    7.54669    0    0    0
     103       35        1 -0.84760000   29.11362   16.82283    7.94772    0    0    0
     104       35        2  0.42380000   28.49477   17.27858    7.37716    0    0    0
     105       35        2  0.42380000   29.96880   16.97797    7.54669    0    0    0
     106       36        1 -0.84760000   29.11362   16.82283   26.72207    0    0    0
     107       36        2  0.42380000   28.49477   17.27858   26.15151    0    0    0
     108       36        2  0.42380000   29.96880   16.97797   26.32104    0    0    0
     109       37        1 -0.84760000   29.11362   35.59718    7.94772    0    0    0
     110       37        2  0.42380000   28.49477   36.05293    7.37716    0    0    0
     111       37        2  0.42380000   29.96880   35.75232    7.54669    0    0    0
     112       38        1 -0.84760000   29.11362   35.59718   26.72207    0    0    0
     113       38        2  0.42380000   28.49477   36.05293   26.15151    0    0    0
     114       38        2  0.42380000   29.96880   35.75232   26.32104    0    0    0
     115       39        1 -0.84760000   10.33927   16.82283   26.72207    0    0    0
     116       39        2  0.42380000    9.72042   17.27858   26.15151    0    0    0
     117       39        2  0.42380000   11.19445   16.97797   26.32104    0    0    0
     118       40        1 -0.84760000   10.33927   35.59718    7.94772    0    0    0
     119       40        2  0.42380000    9.72042   36.05293    7.37716    0    0    0
     120       40        2  0.42380000   11.19445   35.75232    7.54669    0    0    0
     121       41        1 -0.84760000    1.72376   22.18653   30.65443    0    0    0
     122       41        2  0.42380000    1.54405   21.28910   30.93471    0    0    0
     123       41        2  0.42380000    1.32177   22.73371   31.32913    0    0    0
     124       42        1 -0.84760000   20.49811    3.41218   11.88008    0    0    0
     125       42        2  0.42380000   20.31840    2.51475   12.16036    0    0    0
     126       42        2  0.42380000   20.09612    3.95936   12.55478    0    0    0
     127       43        1 -0.84760000    1.72376    3.41218   11.88008    0    0    0
     128       43        2  0.42380000    1.54405    2.51475   12.16036    0    0    0
     129       43        2  0.42380000    1.32177    3.95936   12.55478    0    0    0
     130       44        1 -0.84760000   20.49811    3.41218   30.65443    0    0    0
     131       44        2  0.42380000   20.31840    2.51475   30.93471    0    0    0
     132       44        2  0.42380000   20.09612    3.95936   31.32913    0    0    0
     133       45        1 -0.84760000   20.49811   22.18653   30.65443    0    0    0
     134       45        2  0.42380000   20.31840   21.28910   30.93471    0    0    0
     135       45        2  0.42380000   20.09612   22.73371   31.32913    0    0    0
     136       46        1 -0.84760000    1.72376    3.41218   30.65443    0    0    0
     137       46        2  0.42380000    1.54405    2.51475   30.93471    0    0    0
     138       46        2  0.42380000    1.32177    3.95936   31.32913    0    0    0
     139       47        1 -0.84760000    1.72376   22.18653   11.88008    0    0    0
     140       47        2  0.42380000    1.54405   21.28910   12.16036    0    0    0
     141       47        2  0.42380000    1.32177   22.73371   12.55478    0    0    0
     142       48        1 -0.84760000   10.56361   24.38811   28.55566    0    0    0
     143       48        2  0.42380000   10.94010   23.51530   28.44303    0    0    0
     144       48        2  0.42380000   10.46556   24.72398   27.66471    0    0    0
     145       49        1 -0.84760000   29.33796    5.61376    9.78131    0    0    0
     146       49        2  0.42380000   29.71445    4.74095    9.66868    0    0    0
     147       49        2  0.42380000   29.23991    5.94963    8.89036    0    0    0
     148       50        1 -0.84760000   10.56361    5.61376    9.78131    0    0    0
     149       51        1 -0.84760000   29.33796    5.61376   28.55566    0    0    0
     150       51        2  0.42380000   29.71445    4.74095   28.44303    0    0    0
     151       51        2  0.42380000   29.23991    5.94963   27.66471    0    0    0
     152       50        2  0.42380000   10.94010    4.74095    9.66868    0    0    0
     153       50        2  0.42380000   10.46556    5.94963    8.89036    0    0    0
     154       52        1 -0.84760000   29.33796   24.38811    9.78131    0    0    0
     155       52        2  0.42380000   29.71445   23.51530    9.66868    0    0    0
     156       52        2  0.42380000   29.23991   24.72398    8.89036    0    0    0
     157       53        1 -0.84760000   29.33796   24.38811   28.55566    0    0    0
     158       53        2  0.42380000   29.71445   23.51530   28.44303    0    0    0
     159       53        2  0.42380000   29.23991   24.72398   27.66471    0    0    0
     160       54        1 -0.84760000   10.56361    5.61376   28.55566    0    0    0
     161       54        2  0.42380000   10.94010    4.74095   28.44303    0    0    0
     162       54        2  0.42380000   10.46556    5.94963   27.66471    0    0    0
     163       55        1 -0.84760000   10.56361   24.38811    9.78131    0    0    0
     164       55        2  0.42380000   10.94010   23.51530    9.66868    0    0    0
     165       55        2  0.42380000   10.46556   24.72398    8.89036    0    0    0
     166       56        1 -0.84760000    2.34243   24.68258   29.26267    0    0    0
     167       56        2  0.42380000    3.02344   24.94641   29.88141    0    0    0
     168       56        2  0.42380000    2.02724   23.84266   29.59647    0    0    0
     169       57        1 -0.84760000   21.11678    5.90823   10.48832    0    0    0
     170       57        2  0.42380000   21.79779    6.17206   11.10706    0    0    0
     171       57        2  0.42380000   20.80159    5.06831   10.82212    0    0    0
     172       58        1 -0.84760000   21.11678    5.90823   29.26267    0    0    0
     173       58        2  0.42380000   21.79779    6.17206   29.88141    0    0    0
     174       58        2  0.42380000   20.80159    5.06831   29.59647    0    0    0
     175       59        1 -0.84760000    2.34243    5.90823   10.48832    0    0    0
     176       59        2  0.42380000    3.02344    6.17206   11.10706    0    0    0
     177       60        1 -0.84760000   21.11678   24.68258   10.48832    0    0    0
     178       60        2  0.42380000   21.79779   24.94641   11.10706    0    0    0
     179       60        2  0.42380000   20.80159   23.84266   10.82212    0    0    0
     180       59        2  0.42380000    2.02724    5.06831   10.82212    0    0    0
     181       61        1 -0.84760000   21.11678   24.68258   29.26267    0    0    0
     182       61        2  0.42380000   21.79779   24.94641   29.88141    0    0    0
     183       61        2  0.42380000   20.80159   23.84266   29.59647    0    0    0
     184       62        1 -0.84760000    2.34243    5.90823   29.26267    0    0    0
     185       62        2  0.42380000    3.02344    6.17206   29.88141    0    0    0
     186       62        2  0.42380000    2.02724    5.06831   29.59647    0    0    0
     187       63        1 -0.84760000    2.34243   24.68258   10.48832    0    0    0
     188       63        2  0.42380000    3.02344   24.94641   11.10706    0    0    0
     189       63        2  0.42380000    2.02724   23.84266   10.82212    0    0    0
     190       64        1 -0.84760000    6.53489   25.72931   28.34993    0    0    0
     191       64        2  0.42380000    7.04271   26.22741   28.99043    0    0    0
     192       64        2  0.42380000    7.06621   24.95283   28.17386    0    0    0
     193       65        1 -0.84760000   25.30924    6.95496    9.57558    0    0    0
     194       65        2  0.42380000   25.81706    7.45306   10.21608    0    0    0
     195       65        2  0.42380000   25.84056    6.17848    9.39951    0    0    0
     196       66        1 -0.84760000   25.30924    6.95496   28.34993    0    0    0
     197       66        2  0.42380000   25.81706    7.45306   28.99043    0    0    0
     198       66        2  0.42380000   25.84056    6.17848   28.17386    0    0    0
     199       67        1 -0.84760000   25.30924   25.72931    9.57558    0    0    0
     200       67        2  0.42380000   25.81706   26.22741   10.21608    0    0    0
     201       67        2  0.42380000   25.84056   24.95283    9.39951    0    0    0
     202       68        1 -0.84760000    6.53489    6.95496    9.57558    0    0    0
     203       68        2  0.42380000    7.04271    7.45306   10.21608    0    0    0
     204       68        2  0.42380000    7.06621    6.17848    9.39951    0    0    0
     205       69        1 -0.84760000   25.30924   25.72931   28.34993    0    0    0
     206       69        2  0.42380000   25.81706   26.22741   28.99043    0    0    0
     207       69        2  0.42380000   25.84056   24.95283   28.17386    0    0    0
     208       70        1 -0.84760000    6.53489    6.95496   28.34993    0    0    0
     209       70        2  0.42380000    7.04271    7.45306   28.99043    0    0    0
     210       70        2  0.42380000    7.06621    6.17848   28.17386    0    0    0
     211       71        1 -0.84760000    6.53489   25.72931    9.57558    0    0    0
     212       71        2  0.42380000    7.04271   26.22741   10.21608    0    0    0
     213       71        2  0.42380000    7.06621   24.95283    9.39951    0    0    0
     214       72        1 -0.84760000    4.81850   20.36917   32.61627    0    0    0
     215       72        2  0.42380000    4.82034   20.88641   31.81086    0    0    0
     216       72        2  0.42380000    3.98893   19.89219   32.59326    0    0    0
     217       73        1 -0.84760000   23.59285    1.59482   13.84192    0    0    0
     218       73        2  0.42380000   23.59469    2.11206   13.03651    0    0    0
     219       73        2  0.42380000   22.76328    1.11784   13.81891    0    0    0
     220       74        1 -0.84760000   23.59285    1.59482   32.61627    0    0    0
     221       74        2  0.42380000   23.59469    2.11206   31.81086    0    0    0
     222       74        2  0.42380000   22.76328    1.11784   32.59326    0    0    0
     223       75        1 -0.84760000   23.59285   20.36917   13.84192    0    0    0
     224       75        2  0.42380000   23.59469   20.88641   13.03651    0    0    0
     225       75        2  0.42380000   22.76328   19.89219   13.81891    0    0    0
     226       76        1 -0.84760000   23.59285   20.36917   32.61627    0    0    0
     227       76        2  0.42380000   23.59469   20.88641   31.81086    0    0    0
     228       76        2  0.42380000   22.76328   19.89219   32.59326    0    0    0
     229       77        1 -0.84760000    4.81850    1.59482   13.84192    0    0    0
     230       77        2  0.42380000    4.82034    2.11206   13.03651    0    0    0
     231       77        2  0.42380000    3.98893    1.11784   13.81891    0    0    0
     232       78        1 -0.84760000    4.81850    1.59482   32.61627    0    0    0
     233       78        2  0.42380000    4.82034    2.11206   31.81086    0    0    0
     234       78        2  0.42380000    3.98893    1.11784   32.59326    0    0    0
     235       79        1 -0.84760000    4.81850   20.36917   13.84192    0    0    0
     236       79        2  0.42380000    4.82034   20.88641   13.03651    0    0    0
     237       79        2  0.42380000    3.98893   19.89219   13.81891    0    0    0
     238       80        1 -0.84760000   11.20561   30.48110   24.11526    0    0    0
     239       80        2  0.42380000   10.58733   30.94604   23.55153    0    0    0
     240       80        2  0.42380000   11.71793   31.17385   24.53221    0    0    0
     241       81        1 -0.84760000   29.97996   11.70675    5.34091    0    0    0
     242       81        2  0.42380000   29.36168   12.17169    4.77718    0    0    0
     243       81        2  0.42380000   30.49228   12.39950    5.75786    0    0    0
     244       82        1 -0.84760000   29.97996   11.70675   24.11526    0    0    0
     245       82        2  0.42380000   29.36168   12.17169   23.55153    0    0    0
     246       82        2  0.42380000   30.49228   12.39950   24.53221    0    0    0
     247       83        1 -0.84760000   29.97996   30.48110    5.34091    0    0    0
     248       83        2  0.42380000   29.36168   30.94604    4.77718    0    0    0
     249       83        2  0.42380000   30.49228   31.17385    5.75786    0    0    0
     250       84        1 -0.84760000   29.97996   30.48110   24.11526    0    0    0
     251       84        2  0.42380000   29.36168   30.94604   23.55153    0    0    0
     252       84        2  0.42380000   30.49228   31.17385   24.53221    0    0    0
     253       85        1 -0.84760000   11.20561   11.70675    5.34091    0    0    0
     254       85        2  0.42380000   10.58733   12.17169    4.77718    0    0    0
     255       85        2  0.42380000   11.71793   12.39950    5.75786    0    0    0
     256       86        1 -0.84760000   11.20561   11.70675   24.11526    0    0    0
     257       86        2  0.42380000   10.58733   12.17169   23.55153    0    0    0
     258       86        2  0.42380000   11.71793   12.39950   24.53221    0    0    0
     259       87        1 -0.84760000   11.20561   30.48110    5.34091    0    0    0
     260       87        2  0.42380000   10.58733   30.94604    4.77718    0    0    0
     261       87        2  0.42380000   11.71793   31.17385    5.75786    0    0    0
     262       88        1 -0.84760000   14.58217   23.82319   28.26125    0    0    0
     263       88        2  0.42380000   13.87773   24.11168   28.84156    0    0    0
     264       88        2  0.42380000   14.94339   24.63321   27.90121    0    0    0
     265       89        1 -0.84760000   33.35652    5.04884    9.48690    0    0    0
     266       89        2  0.42380000   32.65208    5.33733   10.06721    0    0    0
     267       89        2  0.42380000   33.71774    5.85886    9.12686    0    0    0
     268       90        1 -0.84760000   33.35652    5.04884   28.26125    0    0    0
     269       90        2  0.42380000   32.65208    5.33733   28.84156    0    0    0
     270       90        2  0.42380000   33.71774    5.85886   27.90121    0    0    0
     271       91        1 -0.84760000   33.35652   23.82319    9.48690    0    0    0
     272       91        2  0.42380000   32.65208   24.11168   10.06721    0    0    0
     273       91        2  0.42380000   33.71774   24.63321    9.12686    0    0    0
     274       92        1 -0.84760000   33.35652   23.82319   28.26125    0    0    0
     275       92        2  0.42380000   32.65208   24.11168   28.84156    0    0    0
     276       92        2  0.42380000   33.71774   24.63321   27.90121    0    0    0
     277       93        1 -0.84760000   14.58217    5.04884    9.48690    0    0    0
     278       93        2  0.42380000   13.87773    5.33733   10.06721    0    0    0
     279       93        2  0.42380000   14.94339    5.85886    9.12686    0    0    0
     280       94        1 -0.84760000   14.58217    5.04884   28.26125    0    0    0
     281       94        2  0.42380000   13.87773    5.33733   28.84156    0    0    0
     282       94        2  0.42380000   14.94339    5.85886   27.90121    0    0    0
     283       95        1 -0.84760000   14.58217   23.82319    9.48690    0    0    0
     284       95        2  0.42380000   13.87773   24.11168   10.06721    0    0    0
     285       95        2  0.42380000   14.94339   24.63321    9.12686    0    0    0
     286       96        1 -0.84760000   16.19845   33.44071   30.52400    0    0    0
     287       96        2  0.42380000   15.51480   34.11062   30.51567    0    0    0
     288       96        2  0.42380000   16.73788   33.63877   29.75849    0    0    0
     289       97        1 -0.84760000   34.97280   14.66636   11.74965    0    0    0
     290       97        2  0.42380000   34.28915   15.33627   11.74132    0    0    0
     291       97        2  0.42380000   35.51223   14.86442   10.98414    0    0    0
     292       98        1 -0.84760000   34.97280   14.66636   30.52400    0    0    0
     293       98        2  0.42380000   34.28915   15.33627   30.51567    0    0    0
     294       98        2  0.42380000   35.51223   14.86442   29.75849    0    0    0
     295       99        1 -0.84760000   34.97280   33.44071   11.74965    0    0    0
     296       99        2  0.42380000   34.28915   34.11062   11.74132    0    0    0
     297       99        2  0.42380000   35.51223   33.63877   10.98414    0    0    0
     298      100        1 -0.84760000   34.97280   33.44071   30.52400    0    0    0
     299      100        2  0.42380000   34.28915   34.11062   30.51567    0    0    0
     300      100        2  0.42380000   35.51223   33.63877   29.75849    0    0    0
     301      101        1 -0.84760000   16.19845   14.66636   11.74965    0    0    0
     302      101        2  0.42380000   15.51480   15.33627   11.74132    0    0    0
     303      101        2  0.42380000   16.73788   14.86442   10.98414    0    0    0
     304      102        1 -0.84760000   16.19845   14.66636   30.52400    0    0    0
     305      102        2  0.42380000   15.51480   15.33627   30.51567    0    0    0
     306      102        2  0.42380000   16.73788   14.86442   29.75849    0    0    0
     307      103        1 -0.84760000   16.19845   33.44071   11.74965    0    0    0
     308      103        2  0.42380000   15.51480   34.11062   11.74132    0    0    0
     309      103        2  0.42380000   16.73788   33.63877   10.98414    0    0    0
     310      104        1 -0.84760000   17.65087   23.26867   28.65217    0    0    0
     311      104        2  0.42380000   16.70336   23.30257   28.78372    0    0    0
     312      104        2  0.42380000   17.97586   24.08257   29.03711    0    0    0
     313      105        1 -0.84760000   36.42522    4.49432    9.87782    0    0    0
     314      105        2  0.42380000   35.47771    4.52822   10.00937    0    0    0
     315      105        2  0.42380000   36.75021    5.30822   10.26276    0    0    0
     316      106        1 -0.84760000   36.42522    4.49432   28.65217    0    0    0
     317      106        2  0.42380000   35.47771    4.52822   28.78372    0    0    0
     318      106        2  0.42380000   36.75021    5.30822   29.03711    0    0    0
     319      107        1 -0.84760000   36.42522   23.26867    9.87782    0    0    0
     320      107        2  0.42380000   35.47771   23.30257   10.00937    0    0    0
     321      107        2  0.42380000   36.75021   24.08257   10.26276    0    0    0
     322      108        1 -0.84760000   36.42522   23.26867   28.65217    0    0    0
     323      108        2  0.42380000   35.47771   23.30257   28.78372    0    0    0
     324      108        2  0.42380000   36.75021   24.08257   29.03711    0    0    0
     325      109        1 -0.84760000   17.65087    4.49432    9.87782    0    0    0
     326      109        2  0.42380000   16.70336    4.52822   10.00937    0    0    0
     327      109        2  0.42380000   17.97586    5.30822   10.26276    0    0    0
     328      110        1 -0.84760000   17.65087    4.49432   28.65217    0    0    0
     329      110        2  0.42380000   16.70336    4.52822   28.78372    0    0    0
     330      110        2  0.42380000   17.97586    5.30822   29.03711    0    0    0
     331      111        1 -0.84760000   17.65087   23.26867    9.87782    0    0    0
     332      111        2  0.42380000   16.70336   23.30257   10.00937    0    0    0
     333      111        2  0.42380000   17.97586   24.08257   10.26276    0    0    0
     334      112        1 -0.84760000    8.18282   19.56839   26.94777    0    0    0
     335      112        2  0.42380000    8.49032   19.01308   26.23132    0    0    0
     336      112        2  0.42380000    7.25289   19.70284   26.76507    0    0    0