Created by /home/xiruan/ATLAS-toolkit/scripts/createLammpsInput.pl on Fri Jan  3 01:27:17 2025

         888 atoms
         472 bonds
         236 angles

           4 atom types
           1 bond types
           1 angle types

		   0.000000  37.548700 xlo xhi
		   0.000000  37.548700 ylo yhi
		   0.000000  37.548700 zlo zhi

Masses

    1 1.5999E+01 # OW     
    2 1.0080E+00 # HW     
    3 6.9400E+00 # Li+    
    4 3.5450E+01 # Cl-    

Pair Coeffs

    1    0.15550    3.16599 # OW OW 
    2    0.00000    1.00000 # HW HW 
    3    0.33673    1.40940 # Li+ Li+ 
    4    0.01278    4.83045 # Cl- Cl- 

Bond Coeffs

    1     5530        1 # HW OW 

Angle Coeffs

    1     1000   109.47 # HW OW HW 

Atoms

       1        1        1 -0.84760000   14.11294   14.53702    8.32732    0    0    0
       2        2        1 -0.84760000   14.11294   33.31137   27.10167    0    0    0
       3        2        2  0.42380000   13.65109   32.54010   27.43038    0    0    0
       4        2        2  0.42380000   14.92550   33.33798   27.60691    0    0    0
       5        3        1 -0.84760000   32.88729   14.53702    8.32732    0    0    0
       6        3        2  0.42380000   32.42544   13.76575    8.65603    0    0    0
       7        3        2  0.42380000   33.69985   14.56363    8.83256    0    0    0
       8        4        1 -0.84760000   32.88729   14.53702   27.10167    0    0    0
       9        4        2  0.42380000   32.42544   13.76575   27.43038    0    0    0
      10        4        2  0.42380000   33.69985   14.56363   27.60691    0    0    0
      11        5        1 -0.84760000   32.88729   33.31137   27.10167    0    0    0
      12        5        2  0.42380000   32.42544   32.54010   27.43038    0    0    0
      13        5        2  0.42380000   33.69985   33.33798   27.60691    0    0    0
      14        1        2  0.42380000   13.65109   13.76575    8.65603    0    0    0
      15        1        2  0.42380000   14.92550   14.56363    8.83256    0    0    0
      16        6        1 -0.84760000   14.11294   33.31137    8.32732    0    0    0
      17        6        2  0.42380000   13.65109   32.54010    8.65603    0    0    0
      18        6        2  0.42380000   14.92550   33.33798    8.83256    0    0    0
      19        7        1 -0.84760000    2.51798    5.40318   22.98357    0    0    0
      20        7        2  0.42380000    1.62965    5.74477   22.88156    0    0    0
      21        7        2  0.42380000    2.80209    5.20321   22.09165    0    0    0
      22        8        1 -0.84760000    2.51798   24.17753   22.98357    0    0    0
      23        8        2  0.42380000    1.62965   24.51912   22.88156    0    0    0
      24        8        2  0.42380000    2.80209   23.97756   22.09165    0    0    0
      25        9        1 -0.84760000   21.29233    5.40318    4.20922    0    0    0
      26        9        2  0.42380000   20.40400    5.74477    4.10721    0    0    0
      27        9        2  0.42380000   21.57644    5.20321    3.31730    0    0    0
      28       10        1 -0.84760000   23.59285   20.36917   32.61627    0    0    0
      29       10        2  0.42380000   23.59469   20.88641   31.81086    0    0    0
      30       10        2  0.42380000   22.76328   19.89219   32.59326    0    0    0
      31       11        1 -0.84760000    4.81850    1.59482   32.61627    0    0    0
      32       11        2  0.42380000    4.82034    2.11206   31.81086    0    0    0
      33       11        2  0.42380000    3.98893    1.11784   32.59326    0    0    0
      34       12        1 -0.84760000    4.81850   20.36917   13.84192    0    0    0
      35       12        2  0.42380000    4.82034   20.88641   13.03651    0    0    0
      36       12        2  0.42380000    3.98893   19.89219   13.81891    0    0    0
      37       13        1 -0.84760000   23.59285    1.59482   32.61627    0    0    0
      38       13        2  0.42380000   23.59469    2.11206   31.81086    0    0    0
      39       13        2  0.42380000   22.76328    1.11784   32.59326    0    0    0
      40       14        1 -0.84760000   11.20561   11.70675    5.34091    0    0    0
      41       14        2  0.42380000   10.58733   12.17169    4.77718    0    0    0
      42       15        1 -0.84760000   29.97996   30.48110   24.11526    0    0    0
      43       15        2  0.42380000   29.36168   30.94604   23.55153    0    0    0
      44       15        2  0.42380000   30.49228   31.17385   24.53221    0    0    0
      45       14        2  0.42380000   11.71793   12.39950    5.75786    0    0    0
      46       16        1 -0.84760000   29.97996   11.70675   24.11526    0    0    0
      47       16        2  0.42380000   29.36168   12.17169   23.55153    0    0    0
      48       16        2  0.42380000   30.49228   12.39950   24.53221    0    0    0
      49       17        1 -0.84760000   23.27438   22.08016   30.62331    0    0    0
      50       17        2  0.42380000   23.61606   22.92437   30.32870    0    0    0
      51       17        2  0.42380000   22.33596   22.22854   30.73985    0    0    0
      52       18        1 -0.84760000    4.50003   22.08016   11.84896    0    0    0
      53       18        2  0.42380000    4.84171   22.92437   11.55435    0    0    0
      54       18        2  0.42380000    3.56161   22.22854   11.96550    0    0    0
      55       19        1 -0.84760000    4.50003   22.08016   30.62331    0    0    0
      56       19        2  0.42380000    4.84171   22.92437   30.32870    0    0    0
      57       19        2  0.42380000    3.56161   22.22854   30.73985    0    0    0
      58       20        1 -0.84760000   23.27438    3.30581   11.84896    0    0    0
      59       20        2  0.42380000   23.61606    4.15002   11.55435    0    0    0
      60       20        2  0.42380000   22.33596    3.45419   11.96550    0    0    0
      61       21        1 -0.84760000   23.27438    3.30581   30.62331    0    0    0
      62       21        2  0.42380000   23.61606    4.15002   30.32870    0    0    0
      63       21        2  0.42380000   22.33596    3.45419   30.73985    0    0    0
      64       22        1 -0.84760000   23.27438   22.08016   11.84896    0    0    0
      65       22        2  0.42380000   23.61606   22.92437   11.55435    0    0    0
      66       22        2  0.42380000   22.33596   22.22854   11.96550    0    0    0
      67       23        1 -0.84760000   16.19845   14.66636   11.74965    0    0    0
      68       23        2  0.42380000   15.51480   15.33627   11.74132    0    0    0
      69       23        2  0.42380000   16.73788   14.86442   10.98414    0    0    0
      70       24        1 -0.84760000   34.97280   14.66636   11.74965    0    0    0
      71       24        2  0.42380000   34.28915   15.33627   11.74132    0    0    0
      72       24        2  0.42380000   35.51223   14.86442   10.98414    0    0    0
      73       25        1 -0.84760000   34.97280   14.66636   30.52400    0    0    0
      74       25        2  0.42380000   34.28915   15.33627   30.51567    0    0    0
      75       25        2  0.42380000   35.51223   14.86442   29.75849    0    0    0
      76       26        1 -0.84760000   34.97280   33.44071   11.74965    0    0    0
      77       26        2  0.42380000   34.28915   34.11062   11.74132    0    0    0
      78       26        2  0.42380000   35.51223   33.63877   10.98414    0    0    0
      79       27        1 -0.84760000   26.95717   19.56839   26.94777    0    0    0
      80       27        2  0.42380000   27.26467   19.01308   26.23132    0    0    0
      81       27        2  0.42380000   26.02724   19.70284   26.76507    0    0    0
      82       28        1 -0.84760000    8.18282    0.79404   26.94777    0    0    0
      83       28        2  0.42380000    8.49032    0.23873   26.23132    0    0    0
      84       28        2  0.42380000    7.25289    0.92849   26.76507    0    0    0
      85       29        1 -0.84760000    8.18282    0.79404    8.17342    0    0    0
      86       29        2  0.42380000    8.49032    0.23873    7.45697    0    0    0
      87       29        2  0.42380000    7.25289    0.92849    7.99072    0    0    0
      88       30        1 -0.84760000    8.18282   19.56839    8.17342    0    0    0
      89       30        2  0.42380000    8.49032   19.01308    7.45697    0    0    0
      90       30        2  0.42380000    7.25289   19.70284    7.99072    0    0    0
      91       31        1 -0.84760000    8.18282   19.56839   26.94777    0    0    0
      92       31        2  0.42380000    8.49032   19.01308   26.23132    0    0    0
      93       31        2  0.42380000    7.25289   19.70284   26.76507    0    0    0
      94       32        1 -0.84760000   26.95717    0.79404   26.94777    0    0    0
      95       32        2  0.42380000   27.26467    0.23873   26.23132    0    0    0
      96       32        2  0.42380000   26.02724    0.92849   26.76507    0    0    0
      97       33        1 -0.84760000   10.55780    5.13062   20.68050    0    0    0
      98       33        2  0.42380000    9.61817    5.29202   20.76575    0    0    0
      99       33        2  0.42380000   10.87613    5.84919   20.13410    0    0    0
     100       34        1 -0.84760000   10.55780   23.90497    1.90615    0    0    0
     101       34        2  0.42380000    9.61817   24.06637    1.99140    0    0    0
     102       34        2  0.42380000   10.87613   24.62354    1.35975    0    0    0
     103       35        1 -0.84760000   10.55780   23.90497   20.68050    0    0    0
     104       35        2  0.42380000    9.61817   24.06637   20.76575    0    0    0
     105       35        2  0.42380000   10.87613   24.62354   20.13410    0    0    0
     106       36        1 -0.84760000    6.64473   13.07215   28.62968    0    0    0
     107       36        2  0.42380000    6.34756   12.46670   27.95046    0    0    0
     108       36        2  0.42380000    7.59471   13.10989   28.51861    0    0    0
     109       37        1 -0.84760000    6.64473   13.07215    9.85533    0    0    0
     110       37        2  0.42380000    6.34756   12.46670    9.17611    0    0    0
     111       37        2  0.42380000    7.59471   13.10989    9.74426    0    0    0
     112       38        1 -0.84760000    6.64473   31.84650    9.85533    0    0    0
     113       38        2  0.42380000    6.34756   31.24105    9.17611    0    0    0
     114       38        2  0.42380000    7.59471   31.88424    9.74426    0    0    0
     115       39        1 -0.84760000    6.64473   31.84650   28.62968    0    0    0
     116       39        2  0.42380000    6.34756   31.24105   27.95046    0    0    0
     117       39        2  0.42380000    7.59471   31.88424   28.51861    0    0    0
     118       40        1 -0.84760000   25.41908   13.07215    9.85533    0    0    0
     119       40        2  0.42380000   25.12191   12.46670    9.17611    0    0    0
     120       40        2  0.42380000   26.36906   13.10989    9.74426    0    0    0
     121       41        1 -0.84760000   23.33804   28.45601   33.85619    0    0    0
     122       41        2  0.42380000   23.19882   29.32829   34.22493    0    0    0
     123       41        2  0.42380000   22.45618   28.11329   33.71099    0    0    0
     124       42        1 -0.84760000    4.56369    9.68166   15.08184    0    0    0
     125       42        2  0.42380000    4.42447   10.55394   15.45058    0    0    0
     126       42        2  0.42380000    3.68183    9.33894   14.93664    0    0    0
     127       43        1 -0.84760000    4.56369   28.45601   33.85619    0    0    0
     128       43        2  0.42380000    4.42447   29.32829   34.22493    0    0    0
     129       43        2  0.42380000    3.68183   28.11329   33.71099    0    0    0
     130       44        1 -0.84760000   23.33804   28.45601   15.08184    0    0    0
     131       44        2  0.42380000   23.19882   29.32829   15.45058    0    0    0
     132       44        2  0.42380000   22.45618   28.11329   14.93664    0    0    0
     133       45        1 -0.84760000    6.36173   15.62383   36.06471    0    0    0
     134       45        2  0.42380000    6.33327   16.02812   35.19755    0    0    0
     135       45        2  0.42380000    6.19823   14.69486   35.90187    0    0    0
     136       46        1 -0.84760000    6.36173   15.62383   17.29036    0    0    0
     137       46        2  0.42380000    6.33327   16.02812   16.42320    0    0    0
     138       46        2  0.42380000    6.19823   14.69486   17.12752    0    0    0
     139       47        1 -0.84760000    6.36173   34.39818   36.06471    0    0    0
     140       47        2  0.42380000    6.33327   34.80247   35.19755    0    0    0
     141       47        2  0.42380000    6.19823   33.46921   35.90187    0    0    0
     142       48        1 -0.84760000   25.13608   15.62383   17.29036    0    0    0
     143       48        2  0.42380000   25.10762   16.02812   16.42320    0    0    0
     144       48        2  0.42380000   24.97258   14.69486   17.12752    0    0    0
     145       49        1 -0.84760000   25.13608   15.62383   36.06471    0    0    0
     146       49        2  0.42380000   25.10762   16.02812   35.19755    0    0    0
     147       49        2  0.42380000   24.97258   14.69486   35.90187    0    0    0
     148       50        1 -0.84760000   25.13608   34.39818   17.29036    0    0    0
     149       50        2  0.42380000   25.10762   34.80247   16.42320    0    0    0
     150       50        2  0.42380000   24.97258   33.46921   17.12752    0    0    0
     151       51        1 -0.84760000    1.76032   13.15143   26.18390    0    0    0
     152       51        2  0.42380000    1.35313   13.29289   25.32926    0    0    0
     153       51        2  0.42380000    2.65162   12.86745   25.98102    0    0    0
     154       52        1 -0.84760000    1.76032   13.15143    7.40955    0    0    0
     155       53        1 -0.84760000    1.76032   31.92578    7.40955    0    0    0
     156       53        2  0.42380000    1.35313   32.06724    6.55491    0    0    0
     157       53        2  0.42380000    2.65162   31.64180    7.20667    0    0    0
     158       52        2  0.42380000    1.35313   13.29289    6.55491    0    0    0
     159       52        2  0.42380000    2.65162   12.86745    7.20667    0    0    0
     160       54        1 -0.84760000    1.76032   31.92578   26.18390    0    0    0
     161       54        2  0.42380000    1.35313   32.06724   25.32926    0    0    0
     162       54        2  0.42380000    2.65162   31.64180   25.98102    0    0    0
     163       55        1 -0.84760000   30.35256   36.07497   33.09061    0    0    0
     164       55        2  0.42380000   30.86703   35.98577   33.89285    0    0    0
     165       55        2  0.42380000   29.50947   36.42094   33.38340    0    0    0
     166       56        1 -0.84760000   11.57821   17.30062   33.09061    0    0    0
     167       56        2  0.42380000   12.09268   17.21142   33.89285    0    0    0
     168       56        2  0.42380000   10.73512   17.64659   33.38340    0    0    0
     169       57        1 -0.84760000   11.57821   36.07497   14.31626    0    0    0
     170       57        2  0.42380000   12.09268   35.98577   15.11850    0    0    0
     171       57        2  0.42380000   10.73512   36.42094   14.60905    0    0    0
     172       58        1 -0.84760000   11.57821   36.07497   33.09061    0    0    0
     173       58        2  0.42380000   12.09268   35.98577   33.89285    0    0    0
     174       58        2  0.42380000   10.73512   36.42094   33.38340    0    0    0
     175       59        1 -0.84760000   30.35256   17.30062   14.31626    0    0    0
     176       59        2  0.42380000   30.86703   17.21142   15.11850    0    0    0
     177       59        2  0.42380000   29.50947   17.64659   14.60905    0    0    0
     178       60        1 -0.84760000   30.35256   17.30062   33.09061    0    0    0
     179       60        2  0.42380000   30.86703   17.21142   33.89285    0    0    0
     180       60        2  0.42380000   29.50947   17.64659   33.38340    0    0    0
     181       61        1 -0.84760000   30.35256   36.07497   14.31626    0    0    0
     182       61        2  0.42380000   30.86703   35.98577   15.11850    0    0    0
     183       61        2  0.42380000   29.50947   36.42094   14.60905    0    0    0
     184       62        1 -0.84760000   12.82126   16.72118   25.15366    0    0    0
     185       62        2  0.42380000   13.27695   15.94012   25.46752    0    0    0
     186       62        2  0.42380000   13.16051   17.43186   25.69778    0    0    0
     187       63        1 -0.84760000   12.82126   16.72118    6.37931    0    0    0
     188       63        2  0.42380000   13.27695   15.94012    6.69317    0    0    0
     189       63        2  0.42380000   13.16051   17.43186    6.92343    0    0    0
     190       64        1 -0.84760000   31.59561   16.72118   25.15366    0    0    0
     191       64        2  0.42380000   32.05130   15.94012   25.46752    0    0    0
     192       64        2  0.42380000   31.93486   17.43186   25.69778    0    0    0
     193       65        1 -0.84760000   19.34586   31.26718   32.31273    0    0    0
     194       65        2  0.42380000   19.50897   30.79771   31.49467    0    0    0
     195       65        2  0.42380000   19.81111   30.75953   32.97762    0    0    0
     196       66        1 -0.84760000    0.57151   12.49283   32.31273    0    0    0
     197       66        2  0.42380000    0.73462   12.02336   31.49467    0    0    0
     198       66        2  0.42380000    1.03676   11.98518   32.97762    0    0    0
     199       67        1 -0.84760000    0.57151   31.26718   13.53838    0    0    0
     200       67        2  0.42380000    0.73462   30.79771   12.72032    0    0    0
     201       67        2  0.42380000    1.03676   30.75953   14.20327    0    0    0
     202       68        1 -0.84760000    0.57151   12.49283   13.53838    0    0    0
     203       68        2  0.42380000    0.73462   12.02336   12.72032    0    0    0
     204       68        2  0.42380000    1.03676   11.98518   14.20327    0    0    0
     205       69        1 -0.84760000   19.34586   12.49283   13.53838    0    0    0
     206       69        2  0.42380000   19.50897   12.02336   12.72032    0    0    0
     207       69        2  0.42380000   19.81111   11.98518   14.20327    0    0    0
     208       70        1 -0.84760000   19.34586   12.49283   32.31273    0    0    0
     209       70        2  0.42380000   19.50897   12.02336   31.49467    0    0    0
     210       70        2  0.42380000   19.81111   11.98518   32.97762    0    0    0
     211       71        1 -0.84760000   24.11774   20.39775   27.34879    0    0    0
     212       71        2  0.42380000   23.67455   21.17871   27.01724    0    0    0
     213       71        2  0.42380000   24.67624   20.72074   28.05588    0    0    0
     214       72        1 -0.84760000    5.34339    1.62340   27.34879    0    0    0
     215       72        2  0.42380000    4.90020    2.40436   27.01724    0    0    0
     216       72        2  0.42380000    5.90189    1.94639   28.05588    0    0    0
     217       73        1 -0.84760000    5.34339    1.62340    8.57444    0    0    0
     218       73        2  0.42380000    4.90020    2.40436    8.24289    0    0    0
     219       73        2  0.42380000    5.90189    1.94639    9.28153    0    0    0
     220       74        1 -0.84760000   24.11774    1.62340    8.57444    0    0    0
     221       74        2  0.42380000   23.67455    2.40436    8.24289    0    0    0
     222       74        2  0.42380000   24.67624    1.94639    9.28153    0    0    0
     223       75        1 -0.84760000   24.11774   20.39775    8.57444    0    0    0
     224       75        2  0.42380000   23.67455   21.17871    8.24289    0    0    0
     225       75        2  0.42380000   24.67624   20.72074    9.28153    0    0    0
     226       76        1 -0.84760000   14.63082   24.48550   15.30764    0    0    0
     227       76        2  0.42380000   13.78018   24.18608   15.62854    0    0    0
     228       76        2  0.42380000   14.47100   24.72970   14.39602    0    0    0
     229       77        1 -0.84760000   33.40517    5.71115   15.30764    0    0    0
     230       77        2  0.42380000   32.55453    5.41173   15.62854    0    0    0
     231       77        2  0.42380000   33.24535    5.95535   14.39602    0    0    0
     232       78        1 -0.84760000   33.40517    5.71115   34.08199    0    0    0
     233       78        2  0.42380000   32.55453    5.41173   34.40289    0    0    0
     234       78        2  0.42380000   33.24535    5.95535   33.17037    0    0    0
     235       79        1 -0.84760000   30.50014   25.98568   36.18187    0    0    0
     236       79        2  0.42380000   30.82548   25.15205   35.84209    0    0    0
     237       79        2  0.42380000   31.28817   26.50853   36.32970    0    0    0
     238       80        1 -0.84760000   11.72579    7.21133   36.18187    0    0    0
     239       80        2  0.42380000   12.05113    6.37770   35.84209    0    0    0
     240       80        2  0.42380000   12.51382    7.73418   36.32970    0    0    0
     241       81        1 -0.84760000   11.72579   25.98568   17.40752    0    0    0
     242       81        2  0.42380000   12.05113   25.15205   17.06774    0    0    0
     243       81        2  0.42380000   12.51382   26.50853   17.55535    0    0    0
     244       82        1 -0.84760000   11.72579    7.21133   17.40752    0    0    0
     245       83        1 -0.84760000   11.72579   25.98568   36.18187    0    0    0
     246       83        2  0.42380000   12.05113   25.15205   35.84209    0    0    0
     247       83        2  0.42380000   12.51382   26.50853   36.32970    0    0    0
     248       82        2  0.42380000   12.05113    6.37770   17.06774    0    0    0
     249       82        2  0.42380000   12.51382    7.73418   17.55535    0    0    0
     250       84        1 -0.84760000   30.50014    7.21133   17.40752    0    0    0
     251       84        2  0.42380000   30.82548    6.37770   17.06774    0    0    0
     252       84        2  0.42380000   31.28817    7.73418   17.55535    0    0    0
     253       85        1 -0.84760000   30.50014    7.21133   36.18187    0    0    0
     254       85        2  0.42380000   30.82548    6.37770   35.84209    0    0    0
     255       85        2  0.42380000   31.28817    7.73418   36.32970    0    0    0
     256       86        1 -0.84760000   30.50014   25.98568   17.40752    0    0    0
     257       86        2  0.42380000   30.82548   25.15205   17.06774    0    0    0
     258       86        2  0.42380000   31.28817   26.50853   17.55535    0    0    0
     259       87        1 -0.84760000   29.74542   24.16380   25.70631    0    0    0
     260       87        2  0.42380000   30.13838   24.48102   24.89318    0    0    0
     261       87        2  0.42380000   30.10711   23.28499   25.82076    0    0    0
     262       88        1 -0.84760000   10.97107    5.38945   25.70631    0    0    0
     263       88        2  0.42380000   11.36403    5.70667   24.89318    0    0    0
     264       88        2  0.42380000   11.33276    4.51064   25.82076    0    0    0
     265       89        1 -0.84760000   10.97107   24.16380   25.70631    0    0    0
     266       89        2  0.42380000   11.36403   24.48102   24.89318    0    0    0
     267       89        2  0.42380000   11.33276   23.28499   25.82076    0    0    0
     268       90        1 -0.84760000   29.74542    5.38945   25.70631    0    0    0
     269       90        2  0.42380000   30.13838    5.70667   24.89318    0    0    0
     270       90        2  0.42380000   30.10711    4.51064   25.82076    0    0    0
     271       91        1 -0.84760000   29.74542   24.16380    6.93196    0    0    0
     272       91        2  0.42380000   30.13838   24.48102    6.11883    0    0    0
     273       91        2  0.42380000   30.10711   23.28499    7.04641    0    0    0
     274       92        1 -0.84760000   18.78184   20.75388   27.92933    0    0    0
     275       92        2  0.42380000   18.49315   21.32417   28.64182    0    0    0
     276       92        2  0.42380000   19.52642   20.27433   28.29245    0    0    0
     277       93        1 -0.84760000    0.00749    1.97953   27.92933    0    0    0
     278       93        2  0.42380000   -0.28120    2.54982   28.64182    0    0    0
     279       93        2  0.42380000    0.75207    1.49998   28.29245    0    0    0
     280       94        1 -0.84760000   18.78184   20.75388    9.15498    0    0    0
     281       94        2  0.42380000   18.49315   21.32417    9.86747    0    0    0
     282       94        2  0.42380000   19.52642   20.27433    9.51810    0    0    0
     283       95        1 -0.84760000   26.76868   23.42980   28.20663    0    0    0
     284       95        2  0.42380000   26.77228   22.98879   27.35709    0    0    0
     285       95        2  0.42380000   27.66379   23.75153   28.31382    0    0    0
     286       96        1 -0.84760000    7.99433   23.42980    9.43228    0    0    0
     287       96        2  0.42380000    7.99793   22.98879    8.58274    0    0    0
     288       96        2  0.42380000    8.88944   23.75153    9.53947    0    0    0
     289       97        1 -0.84760000    7.99433   23.42980   28.20663    0    0    0
     290       97        2  0.42380000    7.99793   22.98879   27.35709    0    0    0
     291       97        2  0.42380000    8.88944   23.75153   28.31382    0    0    0
     292       98        1 -0.84760000   15.44625   19.62096   16.27797    0    0    0
     293       98        2  0.42380000   15.77083   18.88993   16.80376    0    0    0
     294       98        2  0.42380000   15.48190   19.30233   15.37607    0    0    0
     295       99        1 -0.84760000   15.44625   19.62096   35.05232    0    0    0
     296       99        2  0.42380000   15.77083   18.88993   35.57811    0    0    0
     297       99        2  0.42380000   15.48190   19.30233   34.15042    0    0    0
     298      100        1 -0.84760000   15.44625    0.84661   16.27797    0    0    0
     299      100        2  0.42380000   15.77083    0.11558   16.80376    0    0    0
     300      100        2  0.42380000   15.48190    0.52798   15.37607    0    0    0
     301      101        1 -0.84760000   34.22060    0.84661   35.05232    0    0    0
     302      101        2  0.42380000   34.54518    0.11558   35.57811    0    0    0
     303      101        2  0.42380000   34.25625    0.52798   34.15042    0    0    0
     304      102        1 -0.84760000   24.85941   26.53084   13.49725    0    0    0
     305      102        2  0.42380000   24.55512   27.41004   13.72228    0    0    0
     306      102        2  0.42380000   25.81406   26.59082   13.53299    0    0    0
     307      103        1 -0.84760000   24.85941   26.53084   32.27160    0    0    0
     308      103        2  0.42380000   24.55512   27.41004   32.49663    0    0    0
     309      103        2  0.42380000   25.81406   26.59082   32.30734    0    0    0
     310      104        1 -0.84760000    6.08506    7.75649   32.27160    0    0    0
     311      104        2  0.42380000    5.78077    8.63569   32.49663    0    0    0
     312      104        2  0.42380000    7.03971    7.81647   32.30734    0    0    0
     313      105        1 -0.84760000    6.08506   26.53084   32.27160    0    0    0
     314      105        2  0.42380000    5.78077   27.41004   32.49663    0    0    0
     315      105        2  0.42380000    7.03971   26.59082   32.30734    0    0    0
     316      106        1 -0.84760000   24.85941    7.75649   13.49725    0    0    0
     317      106        2  0.42380000   24.55512    8.63569   13.72228    0    0    0
     318      106        2  0.42380000   25.81406    7.81647   13.53299    0    0    0
     319      107        1 -0.84760000   29.52827   29.80438   15.77347    0    0    0
     320      107        2  0.42380000   29.46200   28.88395   15.51923    0    0    0
     321      107        2  0.42380000   28.89878   29.90192   16.48793    0    0    0
     322      108        1 -0.84760000   10.75392   29.80438   15.77347    0    0    0
     323      108        2  0.42380000   10.68765   28.88395   15.51923    0    0    0
     324      108        2  0.42380000   10.12443   29.90192   16.48793    0    0    0
     325      109        1 -0.84760000   10.75392   29.80438   34.54782    0    0    0
     326      109        2  0.42380000   10.68765   28.88395   34.29358    0    0    0
     327      109        2  0.42380000   10.12443   29.90192   35.26228    0    0    0
     328      110        1 -0.84760000   10.75392   11.03003   15.77347    0    0    0
     329      110        2  0.42380000   10.68765   10.10960   15.51923    0    0    0
     330      110        2  0.42380000   10.12443   11.12757   16.48793    0    0    0
     331      111        1 -0.84760000    4.65698   11.63063   26.50616    0    0    0
     332      111        2  0.42380000    5.17485   10.82745   26.45185    0    0    0
     333      111        2  0.42380000    4.20538   11.56854   27.34784    0    0    0
     334      112        1 -0.84760000    4.65698   30.40498    7.73181    0    0    0
     335      112        2  0.42380000    5.17485   29.60180    7.67750    0    0    0
     336      112        2  0.42380000    4.20538   30.34289    8.57349    0    0    0