Created by /home/xiruan/ATLAS-toolkit/scripts/createLammpsInput.pl on Fri Jan  3 01:33:06 2025

         816 atoms
         424 bonds
         212 angles

           4 atom types
           1 bond types
           1 angle types

		   0.000000  37.548700 xlo xhi
		   0.000000  37.548700 ylo yhi
		   0.000000  37.548700 zlo zhi

Masses

    1 1.5999E+01 # OW     
    2 1.0080E+00 # HW     
    3 6.9400E+00 # Li+    
    4 3.5450E+01 # Cl-    

Pair Coeffs

    1    0.15550    3.16599 # OW OW 
    2    0.00000    1.00000 # HW HW 
    3    0.33673    1.40940 # Li+ Li+ 
    4    0.01278    4.83045 # Cl- Cl- 

Bond Coeffs

    1     5530        1 # HW OW 

Angle Coeffs

    1     1000   109.47 # HW OW HW 

Atoms

       1        1        1 -0.84760000   19.25563    8.00374   28.86754    0    0    0
       2        2        1 -0.84760000   19.25563   26.77809   28.86754    0    0    0
       3        1        2  0.42380000   19.82724    7.23596   28.86790    0    0    0
       4        1        2  0.42380000   19.25578    8.30262   27.95820    0    0    0
       5        3        1 -0.84760000   19.25563   26.77809   10.09319    0    0    0
       6        3        2  0.42380000   19.82724   26.01031   10.09355    0    0    0
       7        3        2  0.42380000   19.25578   27.07697    9.18385    0    0    0
       8        2        2  0.42380000   19.82724   26.01031   28.86790    0    0    0
       9        2        2  0.42380000   19.25578   27.07697   27.95820    0    0    0
      10        4        1 -0.84760000   29.33796   24.38811   28.55566    0    0    0
      11        4        2  0.42380000   29.71445   23.51530   28.44303    0    0    0
      12        4        2  0.42380000   29.23991   24.72398   27.66471    0    0    0
      13        5        1 -0.84760000   10.56361    5.61376    9.78131    0    0    0
      14        6        1 -0.84760000   10.56361   24.38811   28.55566    0    0    0
      15        6        2  0.42380000   10.94010   23.51530   28.44303    0    0    0
      16        6        2  0.42380000   10.46556   24.72398   27.66471    0    0    0
      17        5        2  0.42380000   10.94010    4.74095    9.66868    0    0    0
      18        5        2  0.42380000   10.46556    5.94963    8.89036    0    0    0
      19        7        1 -0.84760000   21.11678   24.68258   29.26267    0    0    0
      20        7        2  0.42380000   21.79779   24.94641   29.88141    0    0    0
      21        7        2  0.42380000   20.80159   23.84266   29.59647    0    0    0
      22        8        1 -0.84760000    2.34243    5.90823   29.26267    0    0    0
      23        8        2  0.42380000    3.02344    6.17206   29.88141    0    0    0
      24        8        2  0.42380000    2.02724    5.06831   29.59647    0    0    0
      25        9        1 -0.84760000    2.34243   24.68258   10.48832    0    0    0
      26        9        2  0.42380000    3.02344   24.94641   11.10706    0    0    0
      27        9        2  0.42380000    2.02724   23.84266   10.82212    0    0    0
      28       10        1 -0.84760000    2.34243   24.68258   29.26267    0    0    0
      29       10        2  0.42380000    3.02344   24.94641   29.88141    0    0    0
      30       10        2  0.42380000    2.02724   23.84266   29.59647    0    0    0
      31       11        1 -0.84760000   21.11678    5.90823   10.48832    0    0    0
      32       11        2  0.42380000   21.79779    6.17206   11.10706    0    0    0
      33       11        2  0.42380000   20.80159    5.06831   10.82212    0    0    0
      34       12        1 -0.84760000    2.34243    5.90823   10.48832    0    0    0
      35       13        1 -0.84760000   21.11678    5.90823   29.26267    0    0    0
      36       13        2  0.42380000   21.79779    6.17206   29.88141    0    0    0
      37       13        2  0.42380000   20.80159    5.06831   29.59647    0    0    0
      38       12        2  0.42380000    3.02344    6.17206   11.10706    0    0    0
      39       12        2  0.42380000    2.02724    5.06831   10.82212    0    0    0
      40       14        1 -0.84760000   18.63598    5.12548   13.27851    0    0    0
      41       15        1 -0.84760000   37.41033   23.89983   32.05286    0    0    0
      42       15        2  0.42380000   36.70555   24.28800   31.53437    0    0    0
      43       15        2  0.42380000   37.67612   24.59486   32.65495    0    0    0
      44       14        2  0.42380000   17.93120    5.51365   12.76002    0    0    0
      45       14        2  0.42380000   18.90177    5.82051   13.88060    0    0    0
      46       16        1 -0.84760000   18.63598   23.89983   13.27851    0    0    0
      47       16        2  0.42380000   17.93120   24.28800   12.76002    0    0    0
      48       16        2  0.42380000   18.90177   24.59486   13.88060    0    0    0
      49       17        1 -0.84760000   18.63598   23.89983   32.05286    0    0    0
      50       17        2  0.42380000   17.93120   24.28800   31.53437    0    0    0
      51       17        2  0.42380000   18.90177   24.59486   32.65495    0    0    0
      52       18        1 -0.84760000   37.41033    5.12548   13.27851    0    0    0
      53       18        2  0.42380000   36.70555    5.51365   12.76002    0    0    0
      54       18        2  0.42380000   37.67612    5.82051   13.88060    0    0    0
      55       19        1 -0.84760000   37.41033    5.12548   32.05286    0    0    0
      56       19        2  0.42380000   36.70555    5.51365   31.53437    0    0    0
      57       19        2  0.42380000   37.67612    5.82051   32.65495    0    0    0
      58       20        1 -0.84760000    6.06878   11.23434   12.01927    0    0    0
      59       20        2  0.42380000    5.73572   11.86123   12.66137    0    0    0
      60       20        2  0.42380000    6.24545   11.76052   11.23943    0    0    0
      61       21        1 -0.84760000    6.06878   11.23434   30.79362    0    0    0
      62       21        2  0.42380000    5.73572   11.86123   31.43572    0    0    0
      63       21        2  0.42380000    6.24545   11.76052   30.01378    0    0    0
      64       22        1 -0.84760000    6.06878   30.00869   30.79362    0    0    0
      65       22        2  0.42380000    5.73572   30.63558   31.43572    0    0    0
      66       22        2  0.42380000    6.24545   30.53487   30.01378    0    0    0
      67       23        1 -0.84760000   24.84313   11.23434   30.79362    0    0    0
      68       23        2  0.42380000   24.51007   11.86123   31.43572    0    0    0
      69       23        2  0.42380000   25.01980   11.76052   30.01378    0    0    0
      70       24        1 -0.84760000    5.28069   31.97677   13.83419    0    0    0
      71       24        2  0.42380000    5.89809   32.65187   13.55263    0    0    0
      72       24        2  0.42380000    4.42000   32.38556   13.74294    0    0    0
      73       25        1 -0.84760000   24.05504   13.20242   13.83419    0    0    0
      74       25        2  0.42380000   24.67244   13.87752   13.55263    0    0    0
      75       25        2  0.42380000   23.19435   13.61121   13.74294    0    0    0
      76       26        1 -0.84760000   24.05504   13.20242   32.60854    0    0    0
      77       26        2  0.42380000   24.67244   13.87752   32.32698    0    0    0
      78       26        2  0.42380000   23.19435   13.61121   32.51729    0    0    0
      79       27        1 -0.84760000   24.05504   31.97677   32.60854    0    0    0
      80       27        2  0.42380000   24.67244   32.65187   32.32698    0    0    0
      81       27        2  0.42380000   23.19435   32.38556   32.51729    0    0    0
      82       28        1 -0.84760000   31.90722   30.18810   30.56678    0    0    0
      83       28        2  0.42380000   32.32410   29.97412   29.73212    0    0    0
      84       28        2  0.42380000   32.63120   30.44538   31.13764    0    0    0
      85       29        1 -0.84760000   13.13287   11.41375   30.56678    0    0    0
      86       29        2  0.42380000   13.54975   11.19977   29.73212    0    0    0
      87       29        2  0.42380000   13.85685   11.67103   31.13764    0    0    0
      88       30        1 -0.84760000   13.13287   11.41375   11.79243    0    0    0
      89       30        2  0.42380000   13.54975   11.19977   10.95777    0    0    0
      90       30        2  0.42380000   13.85685   11.67103   12.36329    0    0    0
      91       31        1 -0.84760000   13.13287   30.18810   11.79243    0    0    0
      92       31        2  0.42380000   13.54975   29.97412   10.95777    0    0    0
      93       31        2  0.42380000   13.85685   30.44538   12.36329    0    0    0
      94       32        1 -0.84760000   31.90722   11.41375   11.79243    0    0    0
      95       32        2  0.42380000   32.32410   11.19977   10.95777    0    0    0
      96       32        2  0.42380000   32.63120   11.67103   12.36329    0    0    0
      97       33        1 -0.84760000   31.90722   11.41375   30.56678    0    0    0
      98       33        2  0.42380000   32.32410   11.19977   29.73212    0    0    0
      99       33        2  0.42380000   32.63120   11.67103   31.13764    0    0    0
     100       34        1 -0.84760000   29.33215   23.90497   20.68050    0    0    0
     101       34        2  0.42380000   28.39252   24.06637   20.76575    0    0    0
     102       34        2  0.42380000   29.65048   24.62354   20.13410    0    0    0
     103       35        1 -0.84760000   10.55780   23.90497    1.90615    0    0    0
     104       35        2  0.42380000    9.61817   24.06637    1.99140    0    0    0
     105       35        2  0.42380000   10.87613   24.62354    1.35975    0    0    0
     106       36        1 -0.84760000   29.33215   23.90497    1.90615    0    0    0
     107       36        2  0.42380000   28.39252   24.06637    1.99140    0    0    0
     108       36        2  0.42380000   29.65048   24.62354    1.35975    0    0    0
     109       37        1 -0.84760000   31.55144   28.43399   21.19458    0    0    0
     110       37        2  0.42380000   31.99077   27.59623   21.04837    0    0    0
     111       37        2  0.42380000   32.26429   29.06693   21.28100    0    0    0
     112       38        1 -0.84760000   12.77709    9.65964   21.19458    0    0    0
     113       38        2  0.42380000   13.21642    8.82188   21.04837    0    0    0
     114       38        2  0.42380000   13.48994   10.29258   21.28100    0    0    0
     115       39        1 -0.84760000   12.77709    9.65964    2.42023    0    0    0
     116       39        2  0.42380000   13.21642    8.82188    2.27402    0    0    0
     117       39        2  0.42380000   13.48994   10.29258    2.50665    0    0    0
     118       40        1 -0.84760000   12.77709   28.43399    2.42023    0    0    0
     119       40        2  0.42380000   13.21642   27.59623    2.27402    0    0    0
     120       40        2  0.42380000   13.48994   29.06693    2.50665    0    0    0
     121       41        1 -0.84760000   31.55144    9.65964    2.42023    0    0    0
     122       41        2  0.42380000   31.99077    8.82188    2.27402    0    0    0
     123       41        2  0.42380000   32.26429   10.29258    2.50665    0    0    0
     124       42        1 -0.84760000   31.55144    9.65964   21.19458    0    0    0
     125       42        2  0.42380000   31.99077    8.82188   21.04837    0    0    0
     126       42        2  0.42380000   32.26429   10.29258   21.28100    0    0    0
     127       43        1 -0.84760000   31.55144   28.43399    2.42023    0    0    0
     128       43        2  0.42380000   31.99077   27.59623    2.27402    0    0    0
     129       43        2  0.42380000   32.26429   29.06693    2.50665    0    0    0
     130       44        1 -0.84760000   23.33804   28.45601   33.85619    0    0    0
     131       44        2  0.42380000   23.19882   29.32829   34.22493    0    0    0
     132       44        2  0.42380000   22.45618   28.11329   33.71099    0    0    0
     133       45        1 -0.84760000    4.56369    9.68166   15.08184    0    0    0
     134       45        2  0.42380000    4.42447   10.55394   15.45058    0    0    0
     135       45        2  0.42380000    3.68183    9.33894   14.93664    0    0    0
     136       46        1 -0.84760000    4.56369   28.45601   33.85619    0    0    0
     137       46        2  0.42380000    4.42447   29.32829   34.22493    0    0    0
     138       46        2  0.42380000    3.68183   28.11329   33.71099    0    0    0
     139       47        1 -0.84760000   23.33804   28.45601   15.08184    0    0    0
     140       47        2  0.42380000   23.19882   29.32829   15.45058    0    0    0
     141       47        2  0.42380000   22.45618   28.11329   14.93664    0    0    0
     142       48        1 -0.84760000   36.49089   32.37217   34.52113    0    0    0
     143       48        2  0.42380000   36.61719   32.13336   33.60285    0    0    0
     144       48        2  0.42380000   36.53302   31.54062   34.99334    0    0    0
     145       49        1 -0.84760000   17.71654   13.59782   34.52113    0    0    0
     146       49        2  0.42380000   17.84284   13.35901   33.60285    0    0    0
     147       49        2  0.42380000   17.75867   12.76627   34.99334    0    0    0
     148       50        1 -0.84760000   17.71654   13.59782   15.74678    0    0    0
     149       50        2  0.42380000   17.84284   13.35901   14.82850    0    0    0
     150       50        2  0.42380000   17.75867   12.76627   16.21899    0    0    0
     151       51        1 -0.84760000   17.71654   32.37217   34.52113    0    0    0
     152       51        2  0.42380000   17.84284   32.13336   33.60285    0    0    0
     153       51        2  0.42380000   17.75867   31.54062   34.99334    0    0    0
     154       52        1 -0.84760000   36.49089   13.59782   34.52113    0    0    0
     155       52        2  0.42380000   36.61719   13.35901   33.60285    0    0    0
     156       52        2  0.42380000   36.53302   12.76627   34.99334    0    0    0
     157       53        1 -0.84760000   19.34586   31.26718   32.31273    0    0    0
     158       53        2  0.42380000   19.50897   30.79771   31.49467    0    0    0
     159       53        2  0.42380000   19.81111   30.75953   32.97762    0    0    0
     160       54        1 -0.84760000    0.57151   31.26718   13.53838    0    0    0
     161       54        2  0.42380000    0.73462   30.79771   12.72032    0    0    0
     162       54        2  0.42380000    1.03676   30.75953   14.20327    0    0    0
     163       55        1 -0.84760000    0.57151   31.26718   32.31273    0    0    0
     164       55        2  0.42380000    0.73462   30.79771   31.49467    0    0    0
     165       55        2  0.42380000    1.03676   30.75953   32.97762    0    0    0
     166       56        1 -0.84760000   24.11774   20.39775   27.34879    0    0    0
     167       56        2  0.42380000   23.67455   21.17871   27.01724    0    0    0
     168       56        2  0.42380000   24.67624   20.72074   28.05588    0    0    0
     169       57        1 -0.84760000    5.34339    1.62340    8.57444    0    0    0
     170       57        2  0.42380000    4.90020    2.40436    8.24289    0    0    0
     171       57        2  0.42380000    5.90189    1.94639    9.28153    0    0    0
     172       58        1 -0.84760000    5.34339   20.39775   27.34879    0    0    0
     173       58        2  0.42380000    4.90020   21.17871   27.01724    0    0    0
     174       58        2  0.42380000    5.90189   20.72074   28.05588    0    0    0
     175       59        1 -0.84760000   24.11774    1.62340   27.34879    0    0    0
     176       59        2  0.42380000   23.67455    2.40436   27.01724    0    0    0
     177       59        2  0.42380000   24.67624    1.94639   28.05588    0    0    0
     178       60        1 -0.84760000    2.70579    4.05669   33.89632    0    0    0
     179       60        2  0.42380000    2.31212    4.90421   34.10360    0    0    0
     180       60        2  0.42380000    2.01763    3.41932   34.08718    0    0    0
     181       61        1 -0.84760000    2.70579   22.83104   15.12197    0    0    0
     182       61        2  0.42380000    2.31212   23.67856   15.32925    0    0    0
     183       61        2  0.42380000    2.01763   22.19367   15.31283    0    0    0
     184       62        1 -0.84760000    2.70579    4.05669   15.12197    0    0    0
     185       62        2  0.42380000    2.31212    4.90421   15.32925    0    0    0
     186       62        2  0.42380000    2.01763    3.41932   15.31283    0    0    0
     187       63        1 -0.84760000   21.48014    4.05669   33.89632    0    0    0
     188       63        2  0.42380000   21.08647    4.90421   34.10360    0    0    0
     189       63        2  0.42380000   20.79198    3.41932   34.08718    0    0    0
     190       64        1 -0.84760000    3.84456    4.53810   27.16605    0    0    0
     191       64        2  0.42380000    3.50457    5.01562   27.92276    0    0    0
     192       64        2  0.42380000    3.08230    4.08461   26.80616    0    0    0
     193       65        1 -0.84760000    3.84456   23.31245    8.39170    0    0    0
     194       65        2  0.42380000    3.50457   23.78997    9.14841    0    0    0
     195       65        2  0.42380000    3.08230   22.85896    8.03181    0    0    0
     196       66        1 -0.84760000    3.84456    4.53810    8.39170    0    0    0
     197       66        2  0.42380000    3.50457    5.01562    9.14841    0    0    0
     198       66        2  0.42380000    3.08230    4.08461    8.03181    0    0    0
     199       67        1 -0.84760000    3.84456   23.31245   27.16605    0    0    0
     200       67        2  0.42380000    3.50457   23.78997   27.92276    0    0    0
     201       67        2  0.42380000    3.08230   22.85896   26.80616    0    0    0
     202       68        1 -0.84760000   27.06947   27.48997   29.95317    0    0    0
     203       68        2  0.42380000   27.43649   27.01583   30.69931    0    0    0
     204       68        2  0.42380000   26.87998   28.36413   30.29401    0    0    0
     205       69        1 -0.84760000    8.29512    8.71562   11.17882    0    0    0
     206       69        2  0.42380000    8.66214    8.24148   11.92496    0    0    0
     207       69        2  0.42380000    8.10563    9.58978   11.51966    0    0    0
     208       70        1 -0.84760000    8.29512   27.48997   29.95317    0    0    0
     209       70        2  0.42380000    8.66214   27.01583   30.69931    0    0    0
     210       70        2  0.42380000    8.10563   28.36413   30.29401    0    0    0
     211       71        1 -0.84760000   27.06947    8.71562   11.17882    0    0    0
     212       71        2  0.42380000   27.43649    8.24148   11.92496    0    0    0
     213       71        2  0.42380000   26.87998    9.58978   11.51966    0    0    0
     214       72        1 -0.84760000    6.08506   26.53084   13.49725    0    0    0
     215       72        2  0.42380000    5.78077   27.41004   13.72228    0    0    0
     216       72        2  0.42380000    7.03971   26.59082   13.53299    0    0    0
     217       73        1 -0.84760000    6.08506   26.53084   32.27160    0    0    0
     218       73        2  0.42380000    5.78077   27.41004   32.49663    0    0    0
     219       73        2  0.42380000    7.03971   26.59082   32.30734    0    0    0
     220       74        1 -0.84760000   24.85941    7.75649   13.49725    0    0    0
     221       74        2  0.42380000   24.55512    8.63569   13.72228    0    0    0
     222       74        2  0.42380000   25.81406    7.81647   13.53299    0    0    0
     223       75        1 -0.84760000   24.85941    7.75649   32.27160    0    0    0
     224       75        2  0.42380000   24.55512    8.63569   32.49663    0    0    0
     225       75        2  0.42380000   25.81406    7.81647   32.30734    0    0    0
     226       76        1 -0.84760000   24.85941   26.53084   13.49725    0    0    0
     227       76        2  0.42380000   24.55512   27.41004   13.72228    0    0    0
     228       76        2  0.42380000   25.81406   26.59082   13.53299    0    0    0
     229       77        1 -0.84760000   15.37204   29.73347    9.88657    0    0    0
     230       77        2  0.42380000   16.09195   30.22900    9.49618    0    0    0
     231       77        2  0.42380000   15.17022   29.05526    9.24196    0    0    0
     232       78        1 -0.84760000   10.83303    2.35292   22.80386    0    0    0
     233       78        2  0.42380000   10.01949    1.85424   22.72839    0    0    0
     234       78        2  0.42380000   10.63923    3.19274   22.38749    0    0    0
     235       79        1 -0.84760000   10.83303   21.12727    4.02951    0    0    0
     236       79        2  0.42380000   10.01949   20.62859    3.95404    0    0    0
     237       79        2  0.42380000   10.63923   21.96709    3.61314    0    0    0
     238       80        1 -0.84760000   10.83303   21.12727   22.80386    0    0    0
     239       80        2  0.42380000   10.01949   20.62859   22.72839    0    0    0
     240       80        2  0.42380000   10.63923   21.96709   22.38749    0    0    0
     241       81        1 -0.84760000   29.60738    2.35292   22.80386    0    0    0
     242       81        2  0.42380000   28.79384    1.85424   22.72839    0    0    0
     243       81        2  0.42380000   29.41358    3.19274   22.38749    0    0    0
     244       82        1 -0.84760000   29.60738   21.12727    4.02951    0    0    0
     245       82        2  0.42380000   28.79384   20.62859    3.95404    0    0    0
     246       82        2  0.42380000   29.41358   21.96709    3.61314    0    0    0
     247       83        1 -0.84760000   29.52827   29.80438   34.54782    0    0    0
     248       83        2  0.42380000   29.46200   28.88395   34.29358    0    0    0
     249       83        2  0.42380000   28.89878   29.90192   35.26228    0    0    0
     250       84        1 -0.84760000   10.75392   29.80438   34.54782    0    0    0
     251       84        2  0.42380000   10.68765   28.88395   34.29358    0    0    0
     252       84        2  0.42380000   10.12443   29.90192   35.26228    0    0    0
     253       85        1 -0.84760000   10.75392   11.03003   15.77347    0    0    0
     254       85        2  0.42380000   10.68765   10.10960   15.51923    0    0    0
     255       85        2  0.42380000   10.12443   11.12757   16.48793    0    0    0
     256       86        1 -0.84760000   29.52827   11.03003   34.54782    0    0    0
     257       86        2  0.42380000   29.46200   10.10960   34.29358    0    0    0
     258       86        2  0.42380000   28.89878   11.12757   35.26228    0    0    0
     259       87        1 -0.84760000   24.11710   27.82954   36.30269    0    0    0
     260       87        2  0.42380000   23.81711   27.97525   35.40547    0    0    0
     261       87        2  0.42380000   24.88822   27.27007   36.21003    0    0    0
     262       88        1 -0.84760000    5.34275    9.05519   36.30269    0    0    0
     263       88        2  0.42380000    5.04276    9.20090   35.40547    0    0    0
     264       88        2  0.42380000    6.11387    8.49572   36.21003    0    0    0
     265       89        1 -0.84760000    5.34275   27.82954   17.52834    0    0    0
     266       89        2  0.42380000    5.04276   27.97525   16.63112    0    0    0
     267       89        2  0.42380000    6.11387   27.27007   17.43568    0    0    0
     268       90        1 -0.84760000    5.34275    9.05519   17.52834    0    0    0
     269       90        2  0.42380000    5.04276    9.20090   16.63112    0    0    0
     270       90        2  0.42380000    6.11387    8.49572   17.43568    0    0    0
     271       91        1 -0.84760000   24.11710    9.05519   36.30269    0    0    0
     272       91        2  0.42380000   23.81711    9.20090   35.40547    0    0    0
     273       91        2  0.42380000   24.88822    8.49572   36.21003    0    0    0
     274       92        1 -0.84760000   24.11710   27.82954   17.52834    0    0    0
     275       92        2  0.42380000   23.81711   27.97525   16.63112    0    0    0
     276       92        2  0.42380000   24.88822   27.27007   17.43568    0    0    0
     277       93        1 -0.84760000    8.51300   12.97861   24.55048    0    0    0
     278       93        2  0.42380000    9.20011   13.52553   24.93124    0    0    0
     279       93        2  0.42380000    7.72624   13.52268   24.58544    0    0    0
     280       94        1 -0.84760000    8.51300   31.75296    5.77613    0    0    0
     281       94        2  0.42380000    9.20011   32.29988    6.15689    0    0    0
     282       94        2  0.42380000    7.72624   32.29703    5.81109    0    0    0
     283       95        1 -0.84760000   27.28735   12.97861    5.77613    0    0    0
     284       95        2  0.42380000   27.97446   13.52553    6.15689    0    0    0
     285       95        2  0.42380000   26.50059   13.52268    5.81109    0    0    0
     286       96        1 -0.84760000   27.28735   31.75296    5.77613    0    0    0
     287       96        2  0.42380000   27.97446   32.29988    6.15689    0    0    0
     288       96        2  0.42380000   26.50059   32.29703    5.81109    0    0    0
     289       97        1 -0.84760000    0.65224    8.59589   20.04219    0    0    0
     290       97        2  0.42380000    1.52172    8.87837   20.32578    0    0    0
     291       97        2  0.42380000    0.16127    9.40948   19.92707    0    0    0
     292       98        1 -0.84760000    0.65224   27.37024    1.26784    0    0    0
     293       98        2  0.42380000    1.52172   27.65272    1.55143    0    0    0
     294       98        2  0.42380000    0.16127   28.18383    1.15272    0    0    0
     295       99        1 -0.84760000   19.42659    8.59589    1.26784    0    0    0
     296       99        2  0.42380000   20.29607    8.87837    1.55143    0    0    0
     297       99        2  0.42380000   18.93562    9.40948    1.15272    0    0    0
     298      100        1 -0.84760000    0.65224    8.59589    1.26784    0    0    0
     299      100        2  0.42380000    1.52172    8.87837    1.55143    0    0    0
     300      100        2  0.42380000    0.16127    9.40948    1.15272    0    0    0
     301      101        1 -0.84760000   19.42659    8.59589   20.04219    0    0    0
     302      101        2  0.42380000   20.29607    8.87837   20.32578    0    0    0
     303      101        2  0.42380000   18.93562    9.40948   19.92707    0    0    0
     304      102        1 -0.84760000   19.42659   27.37024    1.26784    0    0    0
     305      102        2  0.42380000   20.29607   27.65272    1.55143    0    0    0
     306      102        2  0.42380000   18.93562   28.18383    1.15272    0    0    0
     307      103        1 -0.84760000   28.89333   34.26819   31.39225    0    0    0
     308      103        2  0.42380000   29.53755   34.47413   32.06959    0    0    0
     309      103        2  0.42380000   29.25627   33.50703   30.93933    0    0    0
     310      104        1 -0.84760000   10.11898   15.49384   31.39225    0    0    0
     311      104        2  0.42380000   10.76320   15.69978   32.06959    0    0    0
     312      104        2  0.42380000   10.48192   14.73268   30.93933    0    0    0
     313      105        1 -0.84760000   10.11898   34.26819   31.39225    0    0    0
     314      105        2  0.42380000   10.76320   34.47413   32.06959    0    0    0
     315      105        2  0.42380000   10.48192   33.50703   30.93933    0    0    0
     316      106        1 -0.84760000   28.89333   15.49384   12.61790    0    0    0
     317      106        2  0.42380000   29.53755   15.69978   13.29524    0    0    0
     318      106        2  0.42380000   29.25627   14.73268   12.16498    0    0    0
     319      107        1 -0.84760000   28.89333   15.49384   31.39225    0    0    0
     320      107        2  0.42380000   29.53755   15.69978   32.06959    0    0    0
     321      107        2  0.42380000   29.25627   14.73268   30.93933    0    0    0
     322      108        1 -0.84760000   28.89333   34.26819   12.61790    0    0    0
     323      108        2  0.42380000   29.53755   34.47413   13.29524    0    0    0
     324      108        2  0.42380000   29.25627   33.50703   12.16498    0    0    0
     325      109        1 -0.84760000   11.39219   32.27143   30.10999    0    0    0
     326      109        2  0.42380000   12.03441   31.57074   30.22321    0    0    0
     327      109        2  0.42380000   11.91712   33.05127   29.92968    0    0    0
     328      110        1 -0.84760000   11.39219   13.49708   11.33564    0    0    0
     329      110        2  0.42380000   12.03441   12.79639   11.44886    0    0    0
     330      110        2  0.42380000   11.91712   14.27692   11.15533    0    0    0
     331      111        1 -0.84760000    8.99481   33.12005   36.48241    0    0    0
     332      111        2  0.42380000    8.67450   32.40098   37.02698    0    0    0
     333      111        2  0.42380000    8.32064   33.79556   36.55601    0    0    0
     334      112        1 -0.84760000   27.76916   14.34570   17.70806    0    0    0
     335      112        2  0.42380000   27.44885   13.62663   18.25263    0    0    0
     336      112        2  0.42380000   27.09499   15.02121   17.78166    0    0    0