Created by /home/xiruan/ATLAS-toolkit/scripts/createLammpsInput.pl on Wed Nov 13 00:45:36 2024

         840 atoms
         440 bonds
         220 angles

           4 atom types
           1 bond types
           1 angle types

		   0.000000  37.548700 xlo xhi
		   0.000000  37.548700 ylo yhi
		   0.000000  37.548700 zlo zhi

Masses

    1 1.5999E+01 # OW     
    2 1.0080E+00 # HW     
    3 6.9400E+00 # Li+    
    4 3.5450E+01 # Cl-    

Pair Coeffs

    1    0.15550    3.16599 # OW OW 
    2    0.00000    1.00000 # HW HW 
    3    0.33673    1.40940 # Li+ Li+ 
    4    0.01278    4.83045 # Cl- Cl- 

Bond Coeffs

    1     5530        1 # HW OW 

Angle Coeffs

    1     1000   109.47 # HW OW HW 

Atoms

       1        1        1 -0.84760000   10.09220   10.13101    9.54740    0    0    0
       2        2        1 -0.84760000   10.09220   28.90536    9.54740    0    0    0
       3        2        2  0.42380000    9.31641   28.42540    9.83726    0    0    0
       4        2        2  0.42380000   10.74349   28.22592    9.37302    0    0    0
       5        3        1 -0.84760000   28.86655   10.13101    9.54740    0    0    0
       6        3        2  0.42380000   28.09076    9.65105    9.83726    0    0    0
       7        3        2  0.42380000   29.51784    9.45157    9.37302    0    0    0
       8        4        1 -0.84760000   28.86655   28.90536    9.54740    0    0    0
       9        5        1 -0.84760000   28.86655   28.90536   28.32175    0    0    0
      10        4        2  0.42380000   28.09076   28.42540    9.83726    0    0    0
      11        4        2  0.42380000   29.51784   28.22592    9.37302    0    0    0
      12        5        2  0.42380000   28.09076   28.42540   28.61161    0    0    0
      13        5        2  0.42380000   29.51784   28.22592   28.14737    0    0    0
      14        1        2  0.42380000    9.31641    9.65105    9.83726    0    0    0
      15        1        2  0.42380000   10.74349    9.45157    9.37302    0    0    0
      16        6        1 -0.84760000    4.10878   10.44299   29.19933    0    0    0
      17        6        2  0.42380000    3.27727   10.18786   29.59898    0    0    0
      18        6        2  0.42380000    4.71688   10.51406   29.93512    0    0    0
      19        7        1 -0.84760000    4.10878   10.44299   10.42498    0    0    0
      20        7        2  0.42380000    3.27727   10.18786   10.82463    0    0    0
      21        7        2  0.42380000    4.71688   10.51406   11.16077    0    0    0
      22        8        1 -0.84760000   22.88313   10.44299   10.42498    0    0    0
      23        8        2  0.42380000   22.05162   10.18786   10.82463    0    0    0
      24        8        2  0.42380000   23.49123   10.51406   11.16077    0    0    0
      25        9        1 -0.84760000   22.88313   10.44299   29.19933    0    0    0
      26        9        2  0.42380000   22.05162   10.18786   29.59898    0    0    0
      27        9        2  0.42380000   23.49123   10.51406   29.93512    0    0    0
      28       10        1 -0.84760000   21.29233   24.17753   22.98357    0    0    0
      29       10        2  0.42380000   20.40400   24.51912   22.88156    0    0    0
      30       10        2  0.42380000   21.57644   23.97756   22.09165    0    0    0
      31       11        1 -0.84760000    2.51798   24.17753    4.20922    0    0    0
      32       11        2  0.42380000    1.62965   24.51912    4.10721    0    0    0
      33       11        2  0.42380000    2.80209   23.97756    3.31730    0    0    0
      34       12        1 -0.84760000   21.29233    5.40318   22.98357    0    0    0
      35       12        2  0.42380000   20.40400    5.74477   22.88156    0    0    0
      36       12        2  0.42380000   21.57644    5.20321   22.09165    0    0    0
      37       13        1 -0.84760000    4.69411    3.98633    5.24306    0    0    0
      38       13        2  0.42380000    4.80079    4.88670    5.54993    0    0    0
      39       13        2  0.42380000    3.78335    3.93812    4.95252    0    0    0
      40       14        1 -0.84760000    4.69411    3.98633   24.01741    0    0    0
      41       14        2  0.42380000    4.80079    4.88670   24.32428    0    0    0
      42       14        2  0.42380000    3.78335    3.93812   23.72687    0    0    0
      43       15        1 -0.84760000    4.69411   22.76068    5.24306    0    0    0
      44       15        2  0.42380000    4.80079   23.66105    5.54993    0    0    0
      45       15        2  0.42380000    3.78335   22.71247    4.95252    0    0    0
      46       16        1 -0.84760000   23.46846    3.98633    5.24306    0    0    0
      47       16        2  0.42380000   23.57514    4.88670    5.54993    0    0    0
      48       16        2  0.42380000   22.55770    3.93812    4.95252    0    0    0
      49       17        1 -0.84760000   23.46846    3.98633   24.01741    0    0    0
      50       17        2  0.42380000   23.57514    4.88670   24.32428    0    0    0
      51       17        2  0.42380000   22.55770    3.93812   23.72687    0    0    0
      52       18        1 -0.84760000    6.53489    6.95496   28.34993    0    0    0
      53       18        2  0.42380000    7.04271    7.45306   28.99043    0    0    0
      54       18        2  0.42380000    7.06621    6.17848   28.17386    0    0    0
      55       19        1 -0.84760000    6.53489   25.72931   28.34993    0    0    0
      56       19        2  0.42380000    7.04271   26.22741   28.99043    0    0    0
      57       19        2  0.42380000    7.06621   24.95283   28.17386    0    0    0
      58       20        1 -0.84760000    8.18282    0.79404   26.94777    0    0    0
      59       20        2  0.42380000    8.49032    0.23873   26.23132    0    0    0
      60       20        2  0.42380000    7.25289    0.92849   26.76507    0    0    0
      61       21        1 -0.84760000    8.18282   19.56839   26.94777    0    0    0
      62       21        2  0.42380000    8.49032   19.01308   26.23132    0    0    0
      63       21        2  0.42380000    7.25289   19.70284   26.76507    0    0    0
      64       22        1 -0.84760000   26.95717    0.79404    8.17342    0    0    0
      65       22        2  0.42380000   27.26467    0.23873    7.45697    0    0    0
      66       22        2  0.42380000   26.02724    0.92849    7.99072    0    0    0
      67       23        1 -0.84760000   26.95717    0.79404   26.94777    0    0    0
      68       23        2  0.42380000   27.26467    0.23873   26.23132    0    0    0
      69       23        2  0.42380000   26.02724    0.92849   26.76507    0    0    0
      70       24        1 -0.84760000   13.13287   30.18810   30.56678    0    0    0
      71       24        2  0.42380000   13.54975   29.97412   29.73212    0    0    0
      72       24        2  0.42380000   13.85685   30.44538   31.13764    0    0    0
      73       25        1 -0.84760000   31.90722   11.41375   11.79243    0    0    0
      74       25        2  0.42380000   32.32410   11.19977   10.95777    0    0    0
      75       25        2  0.42380000   32.63120   11.67103   12.36329    0    0    0
      76       26        1 -0.84760000   31.90722   11.41375   30.56678    0    0    0
      77       26        2  0.42380000   32.32410   11.19977   29.73212    0    0    0
      78       26        2  0.42380000   32.63120   11.67103   31.13764    0    0    0
      79       27        1 -0.84760000   31.90722   30.18810   11.79243    0    0    0
      80       27        2  0.42380000   32.32410   29.97412   10.95777    0    0    0
      81       27        2  0.42380000   32.63120   30.44538   12.36329    0    0    0
      82       28        1 -0.84760000   13.13287   11.41375   30.56678    0    0    0
      83       28        2  0.42380000   13.54975   11.19977   29.73212    0    0    0
      84       28        2  0.42380000   13.85685   11.67103   31.13764    0    0    0
      85       29        1 -0.84760000   13.13287   30.18810   11.79243    0    0    0
      86       29        2  0.42380000   13.54975   29.97412   10.95777    0    0    0
      87       29        2  0.42380000   13.85685   30.44538   12.36329    0    0    0
      88       30        1 -0.84760000   10.57090    8.85892   23.68378    0    0    0
      89       30        2  0.42380000    9.64382    8.79266   23.91263    0    0    0
      90       30        2  0.42380000   10.72338    9.79694   23.56931    0    0    0
      91       31        1 -0.84760000   10.57090    8.85892    4.90943    0    0    0
      92       31        2  0.42380000    9.64382    8.79266    5.13828    0    0    0
      93       31        2  0.42380000   10.72338    9.79694    4.79496    0    0    0
      94       32        1 -0.84760000   10.57090   27.63327   23.68378    0    0    0
      95       32        2  0.42380000    9.64382   27.56701   23.91263    0    0    0
      96       32        2  0.42380000   10.72338   28.57129   23.56931    0    0    0
      97       33        1 -0.84760000   29.34525    8.85892    4.90943    0    0    0
      98       33        2  0.42380000   28.41817    8.79266    5.13828    0    0    0
      99       33        2  0.42380000   29.49773    9.79694    4.79496    0    0    0
     100       34        1 -0.84760000   14.04328    6.59941   12.82954    0    0    0
     101       34        2  0.42380000   13.63040    7.42478   13.08354    0    0    0
     102       34        2  0.42380000   13.31088    6.01391   12.63718    0    0    0
     103       35        1 -0.84760000   14.04328   25.37376   12.82954    0    0    0
     104       35        2  0.42380000   13.63040   26.19913   13.08354    0    0    0
     105       35        2  0.42380000   13.31088   24.78826   12.63718    0    0    0
     106       36        1 -0.84760000   32.81763    6.59941   12.82954    0    0    0
     107       36        2  0.42380000   32.40475    7.42478   13.08354    0    0    0
     108       36        2  0.42380000   32.08523    6.01391   12.63718    0    0    0
     109       37        1 -0.84760000   32.81763    6.59941   31.60389    0    0    0
     110       37        2  0.42380000   32.40475    7.42478   31.85789    0    0    0
     111       37        2  0.42380000   32.08523    6.01391   31.41153    0    0    0
     112       38        1 -0.84760000   32.81763   25.37376   12.82954    0    0    0
     113       38        2  0.42380000   32.40475   26.19913   13.08354    0    0    0
     114       38        2  0.42380000   32.08523   24.78826   12.63718    0    0    0
     115       39        1 -0.84760000   25.41908   31.84650   28.62968    0    0    0
     116       39        2  0.42380000   25.12191   31.24105   27.95046    0    0    0
     117       39        2  0.42380000   26.36906   31.88424   28.51861    0    0    0
     118       40        1 -0.84760000    6.64473   31.84650    9.85533    0    0    0
     119       40        2  0.42380000    6.34756   31.24105    9.17611    0    0    0
     120       40        2  0.42380000    7.59471   31.88424    9.74426    0    0    0
     121       41        1 -0.84760000    6.64473   31.84650   28.62968    0    0    0
     122       41        2  0.42380000    6.34756   31.24105   27.95046    0    0    0
     123       41        2  0.42380000    7.59471   31.88424   28.51861    0    0    0
     124       42        1 -0.84760000   25.41908   13.07215    9.85533    0    0    0
     125       42        2  0.42380000   25.12191   12.46670    9.17611    0    0    0
     126       42        2  0.42380000   26.36906   13.10989    9.74426    0    0    0
     127       43        1 -0.84760000   25.41908   31.84650    9.85533    0    0    0
     128       43        2  0.42380000   25.12191   31.24105    9.17611    0    0    0
     129       43        2  0.42380000   26.36906   31.88424    9.74426    0    0    0
     130       44        1 -0.84760000   31.55144   28.43399   21.19458    0    0    0
     131       44        2  0.42380000   31.99077   27.59623   21.04837    0    0    0
     132       44        2  0.42380000   32.26429   29.06693   21.28100    0    0    0
     133       45        1 -0.84760000   12.77709    9.65964   21.19458    0    0    0
     134       45        2  0.42380000   13.21642    8.82188   21.04837    0    0    0
     135       45        2  0.42380000   13.48994   10.29258   21.28100    0    0    0
     136       46        1 -0.84760000   12.77709   28.43399   21.19458    0    0    0
     137       46        2  0.42380000   13.21642   27.59623   21.04837    0    0    0
     138       46        2  0.42380000   13.48994   29.06693   21.28100    0    0    0
     139       47        1 -0.84760000   31.55144    9.65964    2.42023    0    0    0
     140       47        2  0.42380000   31.99077    8.82188    2.27402    0    0    0
     141       47        2  0.42380000   32.26429   10.29258    2.50665    0    0    0
     142       48        1 -0.84760000   23.33804   28.45601   33.85619    0    0    0
     143       48        2  0.42380000   23.19882   29.32829   34.22493    0    0    0
     144       48        2  0.42380000   22.45618   28.11329   33.71099    0    0    0
     145       49        1 -0.84760000    4.56369    9.68166   33.85619    0    0    0
     146       49        2  0.42380000    4.42447   10.55394   34.22493    0    0    0
     147       49        2  0.42380000    3.68183    9.33894   33.71099    0    0    0
     148       50        1 -0.84760000    4.56369    9.68166   15.08184    0    0    0
     149       50        2  0.42380000    4.42447   10.55394   15.45058    0    0    0
     150       50        2  0.42380000    3.68183    9.33894   14.93664    0    0    0
     151       51        1 -0.84760000    4.56369   28.45601   33.85619    0    0    0
     152       51        2  0.42380000    4.42447   29.32829   34.22493    0    0    0
     153       51        2  0.42380000    3.68183   28.11329   33.71099    0    0    0
     154       52        1 -0.84760000   23.33804    9.68166   15.08184    0    0    0
     155       52        2  0.42380000   23.19882   10.55394   15.45058    0    0    0
     156       52        2  0.42380000   22.45618    9.33894   14.93664    0    0    0
     157       53        1 -0.84760000   23.33804    9.68166   33.85619    0    0    0
     158       53        2  0.42380000   23.19882   10.55394   34.22493    0    0    0
     159       53        2  0.42380000   22.45618    9.33894   33.71099    0    0    0
     160       54        1 -0.84760000   18.31321   16.40654   37.36113    0    0    0
     161       54        2  0.42380000   18.78918   16.88482   38.04003    0    0    0
     162       54        2  0.42380000   18.93393   16.33828   36.63568    0    0    0
     163       55        1 -0.84760000   18.31321   16.40654   18.58678    0    0    0
     164       55        2  0.42380000   18.78918   16.88482   19.26568    0    0    0
     165       55        2  0.42380000   18.93393   16.33828   17.86133    0    0    0
     166       56        1 -0.84760000   18.31321   35.18089   37.36113    0    0    0
     167       56        2  0.42380000   18.78918   35.65917   38.04003    0    0    0
     168       56        2  0.42380000   18.93393   35.11263   36.63568    0    0    0
     169       57        1 -0.84760000   37.08756   16.40654   18.58678    0    0    0
     170       57        2  0.42380000   37.56353   16.88482   19.26568    0    0    0
     171       57        2  0.42380000   37.70828   16.33828   17.86133    0    0    0
     172       58        1 -0.84760000   37.08756   16.40654   37.36113    0    0    0
     173       58        2  0.42380000   37.56353   16.88482   38.04003    0    0    0
     174       58        2  0.42380000   37.70828   16.33828   36.63568    0    0    0
     175       59        1 -0.84760000   37.08756   35.18089   18.58678    0    0    0
     176       59        2  0.42380000   37.56353   35.65917   19.26568    0    0    0
     177       59        2  0.42380000   37.70828   35.11263   17.86133    0    0    0
     178       60        1 -0.84760000   36.49089   32.37217   34.52113    0    0    0
     179       60        2  0.42380000   36.61719   32.13336   33.60285    0    0    0
     180       60        2  0.42380000   36.53302   31.54062   34.99334    0    0    0
     181       61        1 -0.84760000   17.71654   13.59782   34.52113    0    0    0
     182       61        2  0.42380000   17.84284   13.35901   33.60285    0    0    0
     183       61        2  0.42380000   17.75867   12.76627   34.99334    0    0    0
     184       62        1 -0.84760000   36.49089   13.59782   15.74678    0    0    0
     185       62        2  0.42380000   36.61719   13.35901   14.82850    0    0    0
     186       62        2  0.42380000   36.53302   12.76627   16.21899    0    0    0
     187       63        1 -0.84760000   36.49089   13.59782   34.52113    0    0    0
     188       63        2  0.42380000   36.61719   13.35901   33.60285    0    0    0
     189       63        2  0.42380000   36.53302   12.76627   34.99334    0    0    0
     190       64        1 -0.84760000   19.34586   31.26718   32.31273    0    0    0
     191       64        2  0.42380000   19.50897   30.79771   31.49467    0    0    0
     192       64        2  0.42380000   19.81111   30.75953   32.97762    0    0    0
     193       65        1 -0.84760000    0.57151   31.26718   32.31273    0    0    0
     194       65        2  0.42380000    0.73462   30.79771   31.49467    0    0    0
     195       65        2  0.42380000    1.03676   30.75953   32.97762    0    0    0
     196       66        1 -0.84760000   19.34586   12.49283   13.53838    0    0    0
     197       66        2  0.42380000   19.50897   12.02336   12.72032    0    0    0
     198       66        2  0.42380000   19.81111   11.98518   14.20327    0    0    0
     199       67        1 -0.84760000   19.34586   12.49283   32.31273    0    0    0
     200       67        2  0.42380000   19.50897   12.02336   31.49467    0    0    0
     201       67        2  0.42380000   19.81111   11.98518   32.97762    0    0    0
     202       68        1 -0.84760000   19.34586   31.26718   13.53838    0    0    0
     203       68        2  0.42380000   19.50897   30.79771   12.72032    0    0    0
     204       68        2  0.42380000   19.81111   30.75953   14.20327    0    0    0
     205       69        1 -0.84760000   29.74542   24.16380   25.70631    0    0    0
     206       69        2  0.42380000   30.13838   24.48102   24.89318    0    0    0
     207       69        2  0.42380000   30.10711   23.28499   25.82076    0    0    0
     208       70        1 -0.84760000   10.97107    5.38945   25.70631    0    0    0
     209       70        2  0.42380000   11.36403    5.70667   24.89318    0    0    0
     210       70        2  0.42380000   11.33276    4.51064   25.82076    0    0    0
     211       71        1 -0.84760000   10.97107   24.16380    6.93196    0    0    0
     212       71        2  0.42380000   11.36403   24.48102    6.11883    0    0    0
     213       71        2  0.42380000   11.33276   23.28499    7.04641    0    0    0
     214       72        1 -0.84760000   10.97107   24.16380   25.70631    0    0    0
     215       72        2  0.42380000   11.36403   24.48102   24.89318    0    0    0
     216       72        2  0.42380000   11.33276   23.28499   25.82076    0    0    0
     217       73        1 -0.84760000   29.74542    5.38945   25.70631    0    0    0
     218       73        2  0.42380000   30.13838    5.70667   24.89318    0    0    0
     219       73        2  0.42380000   30.10711    4.51064   25.82076    0    0    0
     220       74        1 -0.84760000   29.74542   24.16380    6.93196    0    0    0
     221       74        2  0.42380000   30.13838   24.48102    6.11883    0    0    0
     222       74        2  0.42380000   30.10711   23.28499    7.04641    0    0    0
     223       75        1 -0.84760000   11.55659   26.75438   11.02703    0    0    0
     224       75        2  0.42380000   10.82470   27.26306   11.37604    0    0    0
     225       75        2  0.42380000   11.15902   25.93737   10.72591    0    0    0
     226       76        1 -0.84760000   11.55659   26.75438   29.80138    0    0    0
     227       76        2  0.42380000   10.82470   27.26306   30.15039    0    0    0
     228       76        2  0.42380000   11.15902   25.93737   29.50026    0    0    0
     229       77        1 -0.84760000   30.33094    7.98003   29.80138    0    0    0
     230       77        2  0.42380000   29.59905    8.48871   30.15039    0    0    0
     231       77        2  0.42380000   29.93337    7.16302   29.50026    0    0    0
     232       78        1 -0.84760000   26.76868   23.42980   28.20663    0    0    0
     233       78        2  0.42380000   26.77228   22.98879   27.35709    0    0    0
     234       78        2  0.42380000   27.66379   23.75153   28.31382    0    0    0
     235       79        1 -0.84760000    7.99433   23.42980    9.43228    0    0    0
     236       79        2  0.42380000    7.99793   22.98879    8.58274    0    0    0
     237       79        2  0.42380000    8.88944   23.75153    9.53947    0    0    0
     238       80        1 -0.84760000    7.99433   23.42980   28.20663    0    0    0
     239       80        2  0.42380000    7.99793   22.98879   27.35709    0    0    0
     240       80        2  0.42380000    8.88944   23.75153   28.31382    0    0    0
     241       81        1 -0.84760000   26.76868    4.65545   28.20663    0    0    0
     242       81        2  0.42380000   26.77228    4.21444   27.35709    0    0    0
     243       81        2  0.42380000   27.66379    4.97718   28.31382    0    0    0
     244       82        1 -0.84760000   26.76868   23.42980    9.43228    0    0    0
     245       82        2  0.42380000   26.77228   22.98879    8.58274    0    0    0
     246       82        2  0.42380000   27.66379   23.75153    9.53947    0    0    0
     247       83        1 -0.84760000   27.06947   27.48997   29.95317    0    0    0
     248       83        2  0.42380000   27.43649   27.01583   30.69931    0    0    0
     249       83        2  0.42380000   26.87998   28.36413   30.29401    0    0    0
     250       84        1 -0.84760000    8.29512    8.71562   29.95317    0    0    0
     251       84        2  0.42380000    8.66214    8.24148   30.69931    0    0    0
     252       84        2  0.42380000    8.10563    9.58978   30.29401    0    0    0
     253       85        1 -0.84760000    8.29512   27.48997   29.95317    0    0    0
     254       85        2  0.42380000    8.66214   27.01583   30.69931    0    0    0
     255       85        2  0.42380000    8.10563   28.36413   30.29401    0    0    0
     256       86        1 -0.84760000    8.29512    8.71562   11.17882    0    0    0
     257       86        2  0.42380000    8.66214    8.24148   11.92496    0    0    0
     258       86        2  0.42380000    8.10563    9.58978   11.51966    0    0    0
     259       87        1 -0.84760000   27.06947    8.71562   29.95317    0    0    0
     260       87        2  0.42380000   27.43649    8.24148   30.69931    0    0    0
     261       87        2  0.42380000   26.87998    9.58978   30.29401    0    0    0
     262       88        1 -0.84760000   27.06947   27.48997   11.17882    0    0    0
     263       88        2  0.42380000   27.43649   27.01583   11.92496    0    0    0
     264       88        2  0.42380000   26.87998   28.36413   11.51966    0    0    0
     265       89        1 -0.84760000    6.08506   26.53084   13.49725    0    0    0
     266       89        2  0.42380000    5.78077   27.41004   13.72228    0    0    0
     267       89        2  0.42380000    7.03971   26.59082   13.53299    0    0    0
     268       90        1 -0.84760000    6.08506   26.53084   32.27160    0    0    0
     269       90        2  0.42380000    5.78077   27.41004   32.49663    0    0    0
     270       90        2  0.42380000    7.03971   26.59082   32.30734    0    0    0
     271       91        1 -0.84760000   24.85941    7.75649   13.49725    0    0    0
     272       91        2  0.42380000   24.55512    8.63569   13.72228    0    0    0
     273       91        2  0.42380000   25.81406    7.81647   13.53299    0    0    0
     274       92        1 -0.84760000   29.52827   29.80438   34.54782    0    0    0
     275       92        2  0.42380000   29.46200   28.88395   34.29358    0    0    0
     276       92        2  0.42380000   28.89878   29.90192   35.26228    0    0    0
     277       93        1 -0.84760000   10.75392   29.80438   15.77347    0    0    0
     278       93        2  0.42380000   10.68765   28.88395   15.51923    0    0    0
     279       93        2  0.42380000   10.12443   29.90192   16.48793    0    0    0
     280       94        1 -0.84760000   10.75392   29.80438   34.54782    0    0    0
     281       94        2  0.42380000   10.68765   28.88395   34.29358    0    0    0
     282       94        2  0.42380000   10.12443   29.90192   35.26228    0    0    0
     283       95        1 -0.84760000   29.52827   11.03003   15.77347    0    0    0
     284       95        2  0.42380000   29.46200   10.10960   15.51923    0    0    0
     285       95        2  0.42380000   28.89878   11.12757   16.48793    0    0    0
     286       96        1 -0.84760000   29.52827   11.03003   34.54782    0    0    0
     287       96        2  0.42380000   29.46200   10.10960   34.29358    0    0    0
     288       96        2  0.42380000   28.89878   11.12757   35.26228    0    0    0
     289       97        1 -0.84760000   32.32222   25.49923   21.10007    0    0    0
     290       97        2  0.42380000   33.21018   25.81096   20.92521    0    0    0
     291       97        2  0.42380000   32.29273   24.62646   20.70813    0    0    0
     292       98        1 -0.84760000   32.32222    6.72488    2.32572    0    0    0
     293       98        2  0.42380000   33.21018    7.03661    2.15086    0    0    0
     294       98        2  0.42380000   32.29273    5.85211    1.93378    0    0    0
     295       99        1 -0.84760000   32.32222    6.72488   21.10007    0    0    0
     296       99        2  0.42380000   33.21018    7.03661   20.92521    0    0    0
     297       99        2  0.42380000   32.29273    5.85211   20.70813    0    0    0
     298      100        1 -0.84760000    9.54393   12.89725   21.77889    0    0    0
     299      100        2  0.42380000    9.88550   13.64148   21.28322    0    0    0
     300      100        2  0.42380000    8.71520   13.21037   22.14137    0    0    0
     301      101        1 -0.84760000    9.54393   31.67160   21.77889    0    0    0
     302      101        2  0.42380000    9.88550   32.41583   21.28322    0    0    0
     303      101        2  0.42380000    8.71520   31.98472   22.14137    0    0    0
     304      102        1 -0.84760000    9.54393   12.89725    3.00454    0    0    0
     305      102        2  0.42380000    9.88550   13.64148    2.50887    0    0    0
     306      102        2  0.42380000    8.71520   13.21037    3.36702    0    0    0
     307      103        1 -0.84760000   28.31828   12.89725   21.77889    0    0    0
     308      103        2  0.42380000   28.65985   13.64148   21.28322    0    0    0
     309      103        2  0.42380000   27.48955   13.21037   22.14137    0    0    0
     310      104        1 -0.84760000   28.31828   31.67160    3.00454    0    0    0
     311      104        2  0.42380000   28.65985   32.41583    2.50887    0    0    0
     312      104        2  0.42380000   27.48955   31.98472    3.36702    0    0    0
     313      105        1 -0.84760000   35.67106   29.26717   33.64506    0    0    0
     314      105        2  0.42380000   34.94588   29.86005   33.44800    0    0    0
     315      105        2  0.42380000   36.19861   29.25952   32.84639    0    0    0
     316      106        1 -0.84760000   16.89671   29.26717   33.64506    0    0    0
     317      106        2  0.42380000   16.17153   29.86005   33.44800    0    0    0
     318      106        2  0.42380000   17.42426   29.25952   32.84639    0    0    0
     319      107        1 -0.84760000   35.67106   10.49282   14.87071    0    0    0
     320      107        2  0.42380000   34.94588   11.08570   14.67365    0    0    0
     321      107        2  0.42380000   36.19861   10.48517   14.07204    0    0    0
     322      108        1 -0.84760000   35.67106   10.49282   33.64506    0    0    0
     323      108        2  0.42380000   34.94588   11.08570   33.44800    0    0    0
     324      108        2  0.42380000   36.19861   10.48517   32.84639    0    0    0
     325      109        1 -0.84760000   35.67106   29.26717   14.87071    0    0    0
     326      109        2  0.42380000   34.94588   29.86005   14.67365    0    0    0
     327      109        2  0.42380000   36.19861   29.25952   14.07204    0    0    0
     328      110        1 -0.84760000   26.59007   28.75756   24.16302    0    0    0
     329      110        2  0.42380000   27.04635   29.56808   24.38904    0    0    0
     330      110        2  0.42380000   26.23889   28.43987   24.99487    0    0    0
     331      111        1 -0.84760000    7.81572    9.98321   24.16302    0    0    0
     332      111        2  0.42380000    8.27200   10.79373   24.38904    0    0    0
     333      111        2  0.42380000    7.46454    9.66552   24.99487    0    0    0
     334      112        1 -0.84760000   26.59007    9.98321    5.38867    0    0    0
     335      112        2  0.42380000   27.04635   10.79373    5.61469    0    0    0
     336      112        2  0.42380000   26.23889    9.66552    6.22052    0    0    0