Created by /home/xiruan/ATLAS-toolkit/scripts/createLammpsInput.pl on Fri Jan  3 02:17:30 2025

         744 atoms
         376 bonds
         188 angles

           4 atom types
           1 bond types
           1 angle types

		   0.000000  37.548700 xlo xhi
		   0.000000  37.548700 ylo yhi
		   0.000000  37.548700 zlo zhi

Masses

    1 1.5999E+01 # OW     
    2 1.0080E+00 # HW     
    3 6.9400E+00 # Li+    
    4 3.5450E+01 # Cl-    

Pair Coeffs

    1    0.15550    3.16599 # OW OW 
    2    0.00000    1.00000 # HW HW 
    3    0.33673    1.40940 # Li+ Li+ 
    4    0.01278    4.83045 # Cl- Cl- 

Bond Coeffs

    1     5530        1 # HW OW 

Angle Coeffs

    1     1000   109.47 # HW OW HW 

Atoms

       1        1        1 -0.84760000   14.11294   14.53702   27.10167    0    0    0
       2        1        2  0.42380000   13.65109   13.76575   27.43038    0    0    0
       3        1        2  0.42380000   14.92550   14.56363   27.60691    0    0    0
       4        2        1 -0.84760000   14.11294   33.31137    8.32732    0    0    0
       5        2        2  0.42380000   13.65109   32.54010    8.65603    0    0    0
       6        2        2  0.42380000   14.92550   33.33798    8.83256    0    0    0
       7        3        1 -0.84760000    9.53310   31.58107    9.55442    0    0    0
       8        3        2  0.42380000    9.46392   30.64007    9.39333    0    0    0
       9        3        2  0.42380000   10.29508   31.67122   10.12668    0    0    0
      10        4        1 -0.84760000    9.53310   12.80672    9.55442    0    0    0
      11        4        2  0.42380000    9.46392   11.86572    9.39333    0    0    0
      12        4        2  0.42380000   10.29508   12.89687   10.12668    0    0    0
      13        5        1 -0.84760000   28.30745   31.58107    9.55442    0    0    0
      14        5        2  0.42380000   28.23827   30.64007    9.39333    0    0    0
      15        5        2  0.42380000   29.06943   31.67122   10.12668    0    0    0
      16        6        1 -0.84760000   10.56361   24.38811    9.78131    0    0    0
      17        6        2  0.42380000   10.94010   23.51530    9.66868    0    0    0
      18        6        2  0.42380000   10.46556   24.72398    8.89036    0    0    0
      19        7        1 -0.84760000   29.33796    5.61376   28.55566    0    0    0
      20        7        2  0.42380000   29.71445    4.74095   28.44303    0    0    0
      21        7        2  0.42380000   29.23991    5.94963   27.66471    0    0    0
      22        8        1 -0.84760000   10.56361    5.61376    9.78131    0    0    0
      23        8        2  0.42380000   10.94010    4.74095    9.66868    0    0    0
      24        8        2  0.42380000   10.46556    5.94963    8.89036    0    0    0
      25        9        1 -0.84760000   29.33796   24.38811   28.55566    0    0    0
      26        9        2  0.42380000   29.71445   23.51530   28.44303    0    0    0
      27        9        2  0.42380000   29.23991   24.72398   27.66471    0    0    0
      28       10        1 -0.84760000    4.69411   22.76068    5.24306    0    0    0
      29       10        2  0.42380000    4.80079   23.66105    5.54993    0    0    0
      30       10        2  0.42380000    3.78335   22.71247    4.95252    0    0    0
      31       11        1 -0.84760000    4.69411   22.76068   24.01741    0    0    0
      32       11        2  0.42380000    4.80079   23.66105   24.32428    0    0    0
      33       11        2  0.42380000    3.78335   22.71247   23.72687    0    0    0
      34       12        1 -0.84760000   23.46846    3.98633   24.01741    0    0    0
      35       12        2  0.42380000   23.57514    4.88670   24.32428    0    0    0
      36       12        2  0.42380000   22.55770    3.93812   23.72687    0    0    0
      37       13        1 -0.84760000   23.46846   22.76068    5.24306    0    0    0
      38       13        2  0.42380000   23.57514   23.66105    5.54993    0    0    0
      39       13        2  0.42380000   22.55770   22.71247    4.95252    0    0    0
      40       14        1 -0.84760000   14.34603    3.10881   25.48850    0    0    0
      41       14        2  0.42380000   15.16699    2.61846   25.53105    0    0    0
      42       14        2  0.42380000   14.37943    3.69857   26.24168    0    0    0
      43       15        1 -0.84760000   14.34603   21.88316    6.71415    0    0    0
      44       15        2  0.42380000   15.16699   21.39281    6.75670    0    0    0
      45       15        2  0.42380000   14.37943   22.47292    7.46733    0    0    0
      46       16        1 -0.84760000   14.34603   21.88316   25.48850    0    0    0
      47       16        2  0.42380000   15.16699   21.39281   25.53105    0    0    0
      48       16        2  0.42380000   14.37943   22.47292   26.24168    0    0    0
      49       17        1 -0.84760000   33.12038    3.10881    6.71415    0    0    0
      50       17        2  0.42380000   33.94134    2.61846    6.75670    0    0    0
      51       17        2  0.42380000   33.15378    3.69857    7.46733    0    0    0
      52       18        1 -0.84760000   33.12038   21.88316   25.48850    0    0    0
      53       18        2  0.42380000   33.94134   21.39281   25.53105    0    0    0
      54       18        2  0.42380000   33.15378   22.47292   26.24168    0    0    0
      55       19        1 -0.84760000   37.41033   23.89983   13.27851    0    0    0
      56       19        2  0.42380000   36.70555   24.28800   12.76002    0    0    0
      57       19        2  0.42380000   37.67612   24.59486   13.88060    0    0    0
      58       20        1 -0.84760000   37.41033   23.89983   32.05286    0    0    0
      59       20        2  0.42380000   36.70555   24.28800   31.53437    0    0    0
      60       20        2  0.42380000   37.67612   24.59486   32.65495    0    0    0
      61       21        1 -0.84760000   18.63598   23.89983   13.27851    0    0    0
      62       21        2  0.42380000   17.93120   24.28800   12.76002    0    0    0
      63       21        2  0.42380000   18.90177   24.59486   13.88060    0    0    0
      64       22        1 -0.84760000   18.63598   23.89983   32.05286    0    0    0
      65       22        2  0.42380000   17.93120   24.28800   31.53437    0    0    0
      66       22        2  0.42380000   18.90177   24.59486   32.65495    0    0    0
      67       23        1 -0.84760000   37.41033    5.12548   13.27851    0    0    0
      68       23        2  0.42380000   36.70555    5.51365   12.76002    0    0    0
      69       23        2  0.42380000   37.67612    5.82051   13.88060    0    0    0
      70       24        1 -0.84760000   37.41033    5.12548   32.05286    0    0    0
      71       24        2  0.42380000   36.70555    5.51365   31.53437    0    0    0
      72       24        2  0.42380000   37.67612    5.82051   32.65495    0    0    0
      73       25        1 -0.84760000    5.28069   13.20242   32.60854    0    0    0
      74       25        2  0.42380000    5.89809   13.87752   32.32698    0    0    0
      75       25        2  0.42380000    4.42000   13.61121   32.51729    0    0    0
      76       26        1 -0.84760000   24.05504   13.20242   13.83419    0    0    0
      77       26        2  0.42380000   24.67244   13.87752   13.55263    0    0    0
      78       26        2  0.42380000   23.19435   13.61121   13.74294    0    0    0
      79       27        1 -0.84760000   24.05504   31.97677   32.60854    0    0    0
      80       27        2  0.42380000   24.67244   32.65187   32.32698    0    0    0
      81       27        2  0.42380000   23.19435   32.38556   32.51729    0    0    0
      82       28        1 -0.84760000    0.57393   12.39240   21.48922    0    0    0
      83       28        2  0.42380000    0.19672   12.88111   20.75771    0    0    0
      84       28        2  0.42380000    0.83123   13.06493   22.11987    0    0    0
      85       29        1 -0.84760000   19.34828   12.39240   21.48922    0    0    0
      86       29        2  0.42380000   18.97107   12.88111   20.75771    0    0    0
      87       29        2  0.42380000   19.60558   13.06493   22.11987    0    0    0
      88       30        1 -0.84760000   19.34828   31.16675    2.71487    0    0    0
      89       30        2  0.42380000   18.97107   31.65546    1.98336    0    0    0
      90       30        2  0.42380000   19.60558   31.83928    3.34552    0    0    0
      91       31        1 -0.84760000   17.65087    4.49432   28.65217    0    0    0
      92       31        2  0.42380000   16.70336    4.52822   28.78372    0    0    0
      93       31        2  0.42380000   17.97586    5.30822   29.03711    0    0    0
      94       32        1 -0.84760000   17.65087    4.49432    9.87782    0    0    0
      95       32        2  0.42380000   16.70336    4.52822   10.00937    0    0    0
      96       32        2  0.42380000   17.97586    5.30822   10.26276    0    0    0
      97       33        1 -0.84760000   17.65087   23.26867    9.87782    0    0    0
      98       33        2  0.42380000   16.70336   23.30257   10.00937    0    0    0
      99       33        2  0.42380000   17.97586   24.08257   10.26276    0    0    0
     100       34        1 -0.84760000   17.65087   23.26867   28.65217    0    0    0
     101       34        2  0.42380000   16.70336   23.30257   28.78372    0    0    0
     102       34        2  0.42380000   17.97586   24.08257   29.03711    0    0    0
     103       35        1 -0.84760000   36.42522   23.26867    9.87782    0    0    0
     104       35        2  0.42380000   35.47771   23.30257   10.00937    0    0    0
     105       35        2  0.42380000   36.75021   24.08257   10.26276    0    0    0
     106       36        1 -0.84760000   36.42522   23.26867   28.65217    0    0    0
     107       36        2  0.42380000   35.47771   23.30257   28.78372    0    0    0
     108       36        2  0.42380000   36.75021   24.08257   29.03711    0    0    0
     109       37        1 -0.84760000   12.77709    9.65964   21.19458    0    0    0
     110       37        2  0.42380000   13.21642    8.82188   21.04837    0    0    0
     111       37        2  0.42380000   13.48994   10.29258   21.28100    0    0    0
     112       38        1 -0.84760000   12.77709   28.43399    2.42023    0    0    0
     113       38        2  0.42380000   13.21642   27.59623    2.27402    0    0    0
     114       38        2  0.42380000   13.48994   29.06693    2.50665    0    0    0
     115       39        1 -0.84760000   12.77709   28.43399   21.19458    0    0    0
     116       39        2  0.42380000   13.21642   27.59623   21.04837    0    0    0
     117       39        2  0.42380000   13.48994   29.06693   21.28100    0    0    0
     118       40        1 -0.84760000   31.55144    9.65964   21.19458    0    0    0
     119       40        2  0.42380000   31.99077    8.82188   21.04837    0    0    0
     120       40        2  0.42380000   32.26429   10.29258   21.28100    0    0    0
     121       41        1 -0.84760000   10.88663   14.59924   25.16271    0    0    0
     122       41        2  0.42380000   11.32622   15.34168   24.74825    0    0    0
     123       41        2  0.42380000   10.82532   14.84190   26.08660    0    0    0
     124       42        1 -0.84760000   10.88663   33.37359    6.38836    0    0    0
     125       42        2  0.42380000   11.32622   34.11603    5.97390    0    0    0
     126       42        2  0.42380000   10.82532   33.61625    7.31225    0    0    0
     127       43        1 -0.84760000   10.88663   33.37359   25.16271    0    0    0
     128       43        2  0.42380000   11.32622   34.11603   24.74825    0    0    0
     129       43        2  0.42380000   10.82532   33.61625   26.08660    0    0    0
     130       44        1 -0.84760000   29.66098   14.59924    6.38836    0    0    0
     131       44        2  0.42380000   30.10057   15.34168    5.97390    0    0    0
     132       44        2  0.42380000   29.59967   14.84190    7.31225    0    0    0
     133       45        1 -0.84760000   21.65137   27.05425   23.96642    0    0    0
     134       45        2  0.42380000   21.53113   27.78046   23.35455    0    0    0
     135       45        2  0.42380000   21.34146   26.28454   23.48921    0    0    0
     136       46        1 -0.84760000    2.87702    8.27990    5.19207    0    0    0
     137       46        2  0.42380000    2.75678    9.00611    4.58020    0    0    0
     138       46        2  0.42380000    2.56711    7.51019    4.71486    0    0    0
     139       47        1 -0.84760000    2.87702   27.05425   23.96642    0    0    0
     140       47        2  0.42380000    2.75678   27.78046   23.35455    0    0    0
     141       47        2  0.42380000    2.56711   26.28454   23.48921    0    0    0
     142       48        1 -0.84760000   21.65137    8.27990    5.19207    0    0    0
     143       48        2  0.42380000   21.53113    9.00611    4.58020    0    0    0
     144       48        2  0.42380000   21.34146    7.51019    4.71486    0    0    0
     145       49        1 -0.84760000   21.65137   27.05425    5.19207    0    0    0
     146       49        2  0.42380000   21.53113   27.78046    4.58020    0    0    0
     147       49        2  0.42380000   21.34146   26.28454    4.71486    0    0    0
     148       50        1 -0.84760000   17.56894    5.65107   35.48610    0    0    0
     149       50        2  0.42380000   16.95336    6.15903   34.95765    0    0    0
     150       50        2  0.42380000   17.24858    4.75090   35.42870    0    0    0
     151       51        1 -0.84760000   17.56894    5.65107   16.71175    0    0    0
     152       51        2  0.42380000   16.95336    6.15903   16.18330    0    0    0
     153       51        2  0.42380000   17.24858    4.75090   16.65435    0    0    0
     154       52        1 -0.84760000   36.34329    5.65107   16.71175    0    0    0
     155       52        2  0.42380000   35.72771    6.15903   16.18330    0    0    0
     156       52        2  0.42380000   36.02293    4.75090   16.65435    0    0    0
     157       53        1 -0.84760000    8.45927    1.24447    3.45502    0    0    0
     158       53        2  0.42380000    7.83469    1.24046    4.18035    0    0    0
     159       53        2  0.42380000    8.37228    0.37757    3.05862    0    0    0
     160       54        1 -0.84760000    8.45927   20.01882   22.22937    0    0    0
     161       54        2  0.42380000    7.83469   20.01481   22.95470    0    0    0
     162       54        2  0.42380000    8.37228   19.15192   21.83297    0    0    0
     163       55        1 -0.84760000   27.23362    1.24447    3.45502    0    0    0
     164       55        2  0.42380000   26.60904    1.24046    4.18035    0    0    0
     165       55        2  0.42380000   27.14663    0.37757    3.05862    0    0    0
     166       56        1 -0.84760000   27.23362    1.24447   22.22937    0    0    0
     167       56        2  0.42380000   26.60904    1.24046   22.95470    0    0    0
     168       56        2  0.42380000   27.14663    0.37757   21.83297    0    0    0
     169       57        1 -0.84760000    9.28029    4.14018   36.96599    0    0    0
     170       57        2  0.42380000    8.59012    3.94740   37.60060    0    0    0
     171       57        2  0.42380000   10.02352    4.42365   37.49842    0    0    0
     172       58        1 -0.84760000    9.28029   22.91453   18.19164    0    0    0
     173       58        2  0.42380000    8.59012   22.72175   18.82625    0    0    0
     174       58        2  0.42380000   10.02352   23.19800   18.72407    0    0    0
     175       59        1 -0.84760000    9.28029    4.14018   18.19164    0    0    0
     176       59        2  0.42380000    8.59012    3.94740   18.82625    0    0    0
     177       59        2  0.42380000   10.02352    4.42365   18.72407    0    0    0
     178       60        1 -0.84760000    9.28029   22.91453   36.96599    0    0    0
     179       60        2  0.42380000    8.59012   22.72175   37.60060    0    0    0
     180       60        2  0.42380000   10.02352   23.19800   37.49842    0    0    0
     181       61        1 -0.84760000   28.05464    4.14018   18.19164    0    0    0
     182       61        2  0.42380000   27.36447    3.94740   18.82625    0    0    0
     183       61        2  0.42380000   28.79787    4.42365   18.72407    0    0    0
     184       62        1 -0.84760000    4.61324   11.96259    4.09393    0    0    0
     185       63        1 -0.84760000    4.61324   30.73694   22.86828    0    0    0
     186       63        2  0.42380000    3.83947   30.19670   22.70815    0    0    0
     187       63        2  0.42380000    5.34270   30.21760   22.53006    0    0    0
     188       62        2  0.42380000    3.83947   11.42235    3.93380    0    0    0
     189       62        2  0.42380000    5.34270   11.44325    3.75571    0    0    0
     190       64        1 -0.84760000   23.38759   30.73694    4.09393    0    0    0
     191       64        2  0.42380000   22.61382   30.19670    3.93380    0    0    0
     192       64        2  0.42380000   24.11705   30.21760    3.75571    0    0    0
     193       65        1 -0.84760000   28.31828   31.67160   21.77889    0    0    0
     194       65        2  0.42380000   28.65985   32.41583   21.28322    0    0    0
     195       65        2  0.42380000   27.48955   31.98472   22.14137    0    0    0
     196       66        1 -0.84760000    9.54393   12.89725   21.77889    0    0    0
     197       66        2  0.42380000    9.88550   13.64148   21.28322    0    0    0
     198       66        2  0.42380000    8.71520   13.21037   22.14137    0    0    0
     199       67        1 -0.84760000    9.54393   31.67160    3.00454    0    0    0
     200       67        2  0.42380000    9.88550   32.41583    2.50887    0    0    0
     201       67        2  0.42380000    8.71520   31.98472    3.36702    0    0    0
     202       68        1 -0.84760000    9.54393   31.67160   21.77889    0    0    0
     203       68        2  0.42380000    9.88550   32.41583   21.28322    0    0    0
     204       68        2  0.42380000    8.71520   31.98472   22.14137    0    0    0
     205       69        1 -0.84760000   34.59365   26.81042   20.56806    0    0    0
     206       69        2  0.42380000   34.51002   27.24184   19.71770    0    0    0
     207       69        2  0.42380000   35.31307   27.27025   21.00074    0    0    0
     208       70        1 -0.84760000   34.59365    8.03607   20.56806    0    0    0
     209       70        2  0.42380000   34.51002    8.46749   19.71770    0    0    0
     210       70        2  0.42380000   35.31307    8.49590   21.00074    0    0    0
     211       71        1 -0.84760000   34.59365   26.81042    1.79371    0    0    0
     212       71        2  0.42380000   34.51002   27.24184    0.94335    0    0    0
     213       71        2  0.42380000   35.31307   27.27025    2.22639    0    0    0
     214       72        1 -0.84760000   35.67106   29.26717   33.64506    0    0    0
     215       72        2  0.42380000   34.94588   29.86005   33.44800    0    0    0
     216       72        2  0.42380000   36.19861   29.25952   32.84639    0    0    0
     217       73        1 -0.84760000   16.89671   10.49282   33.64506    0    0    0
     218       73        2  0.42380000   16.17153   11.08570   33.44800    0    0    0
     219       73        2  0.42380000   17.42426   10.48517   32.84639    0    0    0
     220       74        1 -0.84760000   16.89671   10.49282   14.87071    0    0    0
     221       74        2  0.42380000   16.17153   11.08570   14.67365    0    0    0
     222       74        2  0.42380000   17.42426   10.48517   14.07204    0    0    0
     223       75        1 -0.84760000   35.67106   10.49282   14.87071    0    0    0
     224       75        2  0.42380000   34.94588   11.08570   14.67365    0    0    0
     225       75        2  0.42380000   36.19861   10.48517   14.07204    0    0    0
     226       76        1 -0.84760000   35.67106   10.49282   33.64506    0    0    0
     227       76        2  0.42380000   34.94588   11.08570   33.44800    0    0    0
     228       76        2  0.42380000   36.19861   10.48517   32.84639    0    0    0
     229       77        1 -0.84760000   35.67106   29.26717   14.87071    0    0    0
     230       77        2  0.42380000   34.94588   29.86005   14.67365    0    0    0
     231       77        2  0.42380000   36.19861   29.25952   14.07204    0    0    0
     232       78        1 -0.84760000   27.28735   31.75296   24.55048    0    0    0
     233       78        2  0.42380000   27.97446   32.29988   24.93124    0    0    0
     234       78        2  0.42380000   26.50059   32.29703   24.58544    0    0    0
     235       79        1 -0.84760000    8.51300   12.97861   24.55048    0    0    0
     236       79        2  0.42380000    9.20011   13.52553   24.93124    0    0    0
     237       79        2  0.42380000    7.72624   13.52268   24.58544    0    0    0
     238       80        1 -0.84760000   27.28735   12.97861   24.55048    0    0    0
     239       80        2  0.42380000   27.97446   13.52553   24.93124    0    0    0
     240       80        2  0.42380000   26.50059   13.52268   24.58544    0    0    0
     241       81        1 -0.84760000   19.49064   20.86044   34.09594    0    0    0
     242       81        2  0.42380000   18.77649   21.06013   34.70120    0    0    0
     243       81        2  0.42380000   19.91014   20.08439   34.46742    0    0    0
     244       82        1 -0.84760000    0.71629    2.08609   34.09594    0    0    0
     245       82        2  0.42380000    0.00214    2.28578   34.70120    0    0    0
     246       82        2  0.42380000    1.13579    1.31004   34.46742    0    0    0
     247       83        1 -0.84760000   19.49064    2.08609   15.32159    0    0    0
     248       83        2  0.42380000   18.77649    2.28578   15.92685    0    0    0
     249       83        2  0.42380000   19.91014    1.31004   15.69307    0    0    0
     250       84        1 -0.84760000   19.49064   20.86044   15.32159    0    0    0
     251       84        2  0.42380000   18.77649   21.06013   15.92685    0    0    0
     252       84        2  0.42380000   19.91014   20.08439   15.69307    0    0    0
     253       85        1 -0.84760000    7.03623   15.19175   21.42572    0    0    0
     254       85        2  0.42380000    7.02724   15.92472   20.81017    0    0    0
     255       85        2  0.42380000    6.11606   14.94490   21.51842    0    0    0
     256       86        1 -0.84760000   25.81058   15.19175    2.65137    0    0    0
     257       86        2  0.42380000   25.80159   15.92472    2.03582    0    0    0
     258       86        2  0.42380000   24.89041   14.94490    2.74407    0    0    0
     259       87        1 -0.84760000   25.81058   33.96610    2.65137    0    0    0
     260       87        2  0.42380000   25.80159   34.69907    2.03582    0    0    0
     261       87        2  0.42380000   24.89041   33.71925    2.74407    0    0    0
     262       88        1 -0.84760000   30.98452   23.35267   31.84609    0    0    0
     263       88        2  0.42380000   31.35260   22.53219   32.17404    0    0    0
     264       88        2  0.42380000   30.12434   23.41286   32.26165    0    0    0
     265       89        1 -0.84760000   12.21017   23.35267   13.07174    0    0    0
     266       89        2  0.42380000   12.57825   22.53219   13.39969    0    0    0
     267       89        2  0.42380000   11.34999   23.41286   13.48730    0    0    0
     268       90        1 -0.84760000   30.98452    4.57832   31.84609    0    0    0
     269       90        2  0.42380000   31.35260    3.75784   32.17404    0    0    0
     270       90        2  0.42380000   30.12434    4.63851   32.26165    0    0    0
     271       91        1 -0.84760000    1.02811   32.79810    4.80580    0    0    0
     272       91        2  0.42380000    0.10209   33.04022    4.79634    0    0    0
     273       91        2  0.42380000    1.49376   33.62553    4.68427    0    0    0
     274       92        1 -0.84760000    1.02811   32.79810   23.58015    0    0    0
     275       92        2  0.42380000    0.10209   33.04022   23.57069    0    0    0
     276       92        2  0.42380000    1.49376   33.62553   23.45862    0    0    0
     277       93        1 -0.84760000   11.98586   32.02334   18.06775    0    0    0
     278       93        2  0.42380000   11.37967   32.04650   17.32732    0    0    0
     279       93        2  0.42380000   11.68127   31.29164   18.60447    0    0    0
     280       94        1 -0.84760000   11.98586   13.24899   18.06775    0    0    0
     281       94        2  0.42380000   11.37967   13.27215   17.32732    0    0    0
     282       94        2  0.42380000   11.68127   12.51729   18.60447    0    0    0
     283       95        1 -0.84760000   26.54589   31.12412   19.39279    0    0    0
     284       95        2  0.42380000   26.44095   30.50935   20.11893    0    0    0
     285       95        2  0.42380000   26.37831   30.60071   18.60909    0    0    0
     286       96        1 -0.84760000    7.77154   31.12412    0.61844    0    0    0
     287       96        2  0.42380000    7.66660   30.50935    1.34458    0    0    0
     288       96        2  0.42380000    7.60396   30.60071   -0.16526    0    0    0
     289       97        1 -0.84760000    7.77154   31.12412   19.39279    0    0    0
     290       97        2  0.42380000    7.66660   30.50935   20.11893    0    0    0
     291       97        2  0.42380000    7.60396   30.60071   18.60909    0    0    0
     292       98        1 -0.84760000    7.77154   12.34977    0.61844    0    0    0
     293       99        1 -0.84760000   26.54589   12.34977   19.39279    0    0    0
     294       99        2  0.42380000   26.44095   11.73500   20.11893    0    0    0
     295       99        2  0.42380000   26.37831   11.82636   18.60909    0    0    0
     296       98        2  0.42380000    7.66660   11.73500    1.34458    0    0    0
     297       98        2  0.42380000    7.60396   11.82636   -0.16526    0    0    0
     298      100        1 -0.84760000    7.92297   29.80980   16.59736    0    0    0
     299      100        2  0.42380000    7.15754   30.37830   16.51283    0    0    0
     300      100        2  0.42380000    8.10456   29.51742   15.70419    0    0    0
     301      101        1 -0.84760000    7.92297   11.03545   16.59736    0    0    0
     302      101        2  0.42380000    7.15754   11.60395   16.51283    0    0    0
     303      101        2  0.42380000    8.10456   10.74307   15.70419    0    0    0
     304      102        1 -0.84760000   32.51422   29.59181   34.46474    0    0    0
     305      102        2  0.42380000   32.92832   29.74632   35.31378    0    0    0
     306      102        2  0.42380000   31.57932   29.71734   34.62731    0    0    0
     307      103        1 -0.84760000   13.73987   10.81746   34.46474    0    0    0
     308      103        2  0.42380000   14.15397   10.97197   35.31378    0    0    0
     309      103        2  0.42380000   12.80497   10.94299   34.62731    0    0    0
     310      104        1 -0.84760000   32.51422   10.81746   34.46474    0    0    0
     311      104        2  0.42380000   32.92832   10.97197   35.31378    0    0    0
     312      104        2  0.42380000   31.57932   10.94299   34.62731    0    0    0
     313      105        1 -0.84760000   13.73987   10.81746   15.69039    0    0    0
     314      105        2  0.42380000   14.15397   10.97197   16.53943    0    0    0
     315      105        2  0.42380000   12.80497   10.94299   15.85296    0    0    0
     316      106        1 -0.84760000   14.21209   26.93143   17.69430    0    0    0
     317      106        2  0.42380000   14.79416   26.17666   17.60635    0    0    0
     318      106        2  0.42380000   14.38826   27.46217   16.91745    0    0    0
     319      107        1 -0.84760000   32.98644    8.15708   17.69430    0    0    0
     320      107        2  0.42380000   33.56851    7.40231   17.60635    0    0    0
     321      107        2  0.42380000   33.16261    8.68782   16.91745    0    0    0
     322      108        1 -0.84760000   32.98644    8.15708   36.46865    0    0    0
     323      108        2  0.42380000   33.56851    7.40231   36.38070    0    0    0
     324      108        2  0.42380000   33.16261    8.68782   35.69180    0    0    0
     325      109        1 -0.84760000   14.21209    8.15708   17.69430    0    0    0
     326      109        2  0.42380000   14.79416    7.40231   17.60635    0    0    0
     327      109        2  0.42380000   14.38826    8.68782   16.91745    0    0    0
     328      110        1 -0.84760000   32.98644   26.93143   17.69430    0    0    0
     329      110        2  0.42380000   33.56851   26.17666   17.60635    0    0    0
     330      110        2  0.42380000   33.16261   27.46217   16.91745    0    0    0
     331      111        1 -0.84760000    5.32929   22.09111   34.78035    0    0    0
     332      111        2  0.42380000    5.23498   21.47318   34.05543    0    0    0
     333      111        2  0.42380000    4.74903   22.81773   34.55334    0    0    0
     334      112        1 -0.84760000   24.10364    3.31676   16.00600    0    0    0
     335      112        2  0.42380000   24.00933    2.69883   15.28108    0    0    0
     336      112        2  0.42380000   23.52338    4.04338   15.77899    0    0    0