Created by /home/xiruan/ATLAS-toolkit/scripts/createLammpsInput.pl on Mon Nov 25 13:40:54 2024

        1304 atoms
         736 bonds
         368 angles

           4 atom types
           1 bond types
           1 angle types

		   0.000000  37.548700 xlo xhi
		   0.000000  37.548700 ylo yhi
		   0.000000  37.548700 zlo zhi

Masses

    1 1.5999E+01 # OW     
    2 1.0080E+00 # HW     
    3 6.9400E+00 # Li+    
    4 3.5450E+01 # Cl-    

Pair Coeffs

    1    0.15550    3.16599 # OW OW 
    2    0.00000    1.00000 # HW HW 
    3    0.33673    1.40940 # Li+ Li+ 
    4    0.01278    4.83045 # Cl- Cl- 

Bond Coeffs

    1     5530        1 # HW OW 

Angle Coeffs

    1     1000   109.47 # HW OW HW 

Atoms

       1        1        1 -0.84760000    4.10878   10.44299   10.42498    0    0    0
       2        2        2  0.42380000   23.49123   29.28841   29.93512    0    0    0
       3        1        2  0.42380000    3.27727   10.18786   10.82463    0    0    0
       4        3        1 -0.84760000    4.10878   10.44299   29.19933    0    0    0
       5        3        2  0.42380000    3.27727   10.18786   29.59898    0    0    0
       6        3        2  0.42380000    4.71688   10.51406   29.93512    0    0    0
       7        1        2  0.42380000    4.71688   10.51406   11.16077    0    0    0
       8        4        1 -0.84760000   22.88313   10.44299   29.19933    0    0    0
       9        4        2  0.42380000   22.05162   10.18786   29.59898    0    0    0
      10        4        2  0.42380000   23.49123   10.51406   29.93512    0    0    0
      11        5        1 -0.84760000   22.88313   29.21734   10.42498    0    0    0
      12        5        2  0.42380000   22.05162   28.96221   10.82463    0    0    0
      13        5        2  0.42380000   23.49123   29.28841   11.16077    0    0    0
      14        2        1 -0.84760000   22.88313   29.21734   29.19933    0    0    0
      15        2        2  0.42380000   22.05162   28.96221   29.59898    0    0    0
      16        6        1 -0.84760000   32.88729   33.31137   27.10167    0    0    0
      17        6        2  0.42380000   32.42544   32.54010   27.43038    0    0    0
      18        6        2  0.42380000   33.69985   33.33798   27.60691    0    0    0
      19        7        1 -0.84760000   14.11294   14.53702   27.10167    0    0    0
      20        7        2  0.42380000   13.65109   13.76575   27.43038    0    0    0
      21        7        2  0.42380000   14.92550   14.56363   27.60691    0    0    0
      22        8        1 -0.84760000   14.11294   14.53702    8.32732    0    0    0
      23        9        1 -0.84760000   14.11294   33.31137    8.32732    0    0    0
      24        9        2  0.42380000   13.65109   32.54010    8.65603    0    0    0
      25        9        2  0.42380000   14.92550   33.33798    8.83256    0    0    0
      26        8        2  0.42380000   13.65109   13.76575    8.65603    0    0    0
      27        8        2  0.42380000   14.92550   14.56363    8.83256    0    0    0
      28       10        1 -0.84760000   32.88729   14.53702    8.32732    0    0    0
      29       10        2  0.42380000   32.42544   13.76575    8.65603    0    0    0
      30       10        2  0.42380000   33.69985   14.56363    8.83256    0    0    0
      31       11        1 -0.84760000   22.86326   14.47700   29.39513    0    0    0
      32       11        2  0.42380000   23.16606   13.58677   29.21615    0    0    0
      33       11        2  0.42380000   23.60762   15.03402   29.16736    0    0    0
      34       12        1 -0.84760000    4.08891   14.47700   29.39513    0    0    0
      35       12        2  0.42380000    4.39171   13.58677   29.21615    0    0    0
      36       12        2  0.42380000    4.83327   15.03402   29.16736    0    0    0
      37       13        1 -0.84760000    4.08891   33.25135   10.62078    0    0    0
      38       13        2  0.42380000    4.39171   32.36112   10.44180    0    0    0
      39       13        2  0.42380000    4.83327   33.80837   10.39301    0    0    0
      40       14        1 -0.84760000    4.08891   33.25135   29.39513    0    0    0
      41       14        2  0.42380000    4.39171   32.36112   29.21615    0    0    0
      42       14        2  0.42380000    4.83327   33.80837   29.16736    0    0    0
      43       15        1 -0.84760000    4.08891   14.47700   10.62078    0    0    0
      44       15        2  0.42380000    4.39171   13.58677   10.44180    0    0    0
      45       16        1 -0.84760000   22.86326   14.47700   10.62078    0    0    0
      46       16        2  0.42380000   23.16606   13.58677   10.44180    0    0    0
      47       16        2  0.42380000   23.60762   15.03402   10.39301    0    0    0
      48       15        2  0.42380000    4.83327   15.03402   10.39301    0    0    0
      49       17        1 -0.84760000   10.33927   16.82283    7.94772    0    0    0
      50       17        2  0.42380000    9.72042   17.27858    7.37716    0    0    0
      51       17        2  0.42380000   11.19445   16.97797    7.54669    0    0    0
      52       18        1 -0.84760000   29.11362   35.59718   26.72207    0    0    0
      53       18        2  0.42380000   28.49477   36.05293   26.15151    0    0    0
      54       18        2  0.42380000   29.96880   35.75232   26.32104    0    0    0
      55       19        1 -0.84760000   10.33927   35.59718    7.94772    0    0    0
      56       19        2  0.42380000    9.72042   36.05293    7.37716    0    0    0
      57       19        2  0.42380000   11.19445   35.75232    7.54669    0    0    0
      58       20        1 -0.84760000   10.33927   35.59718   26.72207    0    0    0
      59       20        2  0.42380000    9.72042   36.05293   26.15151    0    0    0
      60       20        2  0.42380000   11.19445   35.75232   26.32104    0    0    0
      61       21        1 -0.84760000   29.11362   16.82283    7.94772    0    0    0
      62       21        2  0.42380000   28.49477   17.27858    7.37716    0    0    0
      63       21        2  0.42380000   29.96880   16.97797    7.54669    0    0    0
      64       22        1 -0.84760000   29.33796    5.61376   28.55566    0    0    0
      65       22        2  0.42380000   29.71445    4.74095   28.44303    0    0    0
      66       22        2  0.42380000   29.23991    5.94963   27.66471    0    0    0
      67       23        1 -0.84760000   29.33796   24.38811    9.78131    0    0    0
      68       23        2  0.42380000   29.71445   23.51530    9.66868    0    0    0
      69       23        2  0.42380000   29.23991   24.72398    8.89036    0    0    0
      70       24        1 -0.84760000   10.56361    5.61376    9.78131    0    0    0
      71       24        2  0.42380000   10.94010    4.74095    9.66868    0    0    0
      72       24        2  0.42380000   10.46556    5.94963    8.89036    0    0    0
      73       25        1 -0.84760000   10.56361    5.61376   28.55566    0    0    0
      74       25        2  0.42380000   10.94010    4.74095   28.44303    0    0    0
      75       25        2  0.42380000   10.46556    5.94963   27.66471    0    0    0
      76       26        1 -0.84760000   10.56361   24.38811    9.78131    0    0    0
      77       26        2  0.42380000   10.94010   23.51530    9.66868    0    0    0
      78       26        2  0.42380000   10.46556   24.72398    8.89036    0    0    0
      79       27        1 -0.84760000   10.56361   24.38811   28.55566    0    0    0
      80       27        2  0.42380000   10.94010   23.51530   28.44303    0    0    0
      81       27        2  0.42380000   10.46556   24.72398   27.66471    0    0    0
      82       28        1 -0.84760000   33.12038   21.88316    6.71415    0    0    0
      83       28        2  0.42380000   33.94134   21.39281    6.75670    0    0    0
      84       28        2  0.42380000   33.15378   22.47292    7.46733    0    0    0
      85       29        1 -0.84760000   33.12038   21.88316   25.48850    0    0    0
      86       29        2  0.42380000   33.94134   21.39281   25.53105    0    0    0
      87       29        2  0.42380000   33.15378   22.47292   26.24168    0    0    0
      88       30        1 -0.84760000   14.34603    3.10881    6.71415    0    0    0
      89       30        2  0.42380000   15.16699    2.61846    6.75670    0    0    0
      90       30        2  0.42380000   14.37943    3.69857    7.46733    0    0    0
      91       31        1 -0.84760000   14.34603    3.10881   25.48850    0    0    0
      92       31        2  0.42380000   15.16699    2.61846   25.53105    0    0    0
      93       31        2  0.42380000   14.37943    3.69857   26.24168    0    0    0
      94       32        1 -0.84760000   14.34603   21.88316    6.71415    0    0    0
      95       32        2  0.42380000   15.16699   21.39281    6.75670    0    0    0
      96       32        2  0.42380000   14.37943   22.47292    7.46733    0    0    0
      97       33        1 -0.84760000   14.34603   21.88316   25.48850    0    0    0
      98       33        2  0.42380000   15.16699   21.39281   25.53105    0    0    0
      99       33        2  0.42380000   14.37943   22.47292   26.24168    0    0    0
     100       34        1 -0.84760000   33.12038    3.10881    6.71415    0    0    0
     101       34        2  0.42380000   33.94134    2.61846    6.75670    0    0    0
     102       34        2  0.42380000   33.15378    3.69857    7.46733    0    0    0
     103       35        1 -0.84760000   25.30924    6.95496   28.34993    0    0    0
     104       35        2  0.42380000   25.81706    7.45306   28.99043    0    0    0
     105       35        2  0.42380000   25.84056    6.17848   28.17386    0    0    0
     106       36        1 -0.84760000   25.30924   25.72931   28.34993    0    0    0
     107       36        2  0.42380000   25.81706   26.22741   28.99043    0    0    0
     108       36        2  0.42380000   25.84056   24.95283   28.17386    0    0    0
     109       37        1 -0.84760000    6.53489    6.95496    9.57558    0    0    0
     110       37        2  0.42380000    7.04271    7.45306   10.21608    0    0    0
     111       37        2  0.42380000    7.06621    6.17848    9.39951    0    0    0
     112       38        1 -0.84760000    6.53489    6.95496   28.34993    0    0    0
     113       38        2  0.42380000    7.04271    7.45306   28.99043    0    0    0
     114       38        2  0.42380000    7.06621    6.17848   28.17386    0    0    0
     115       39        1 -0.84760000    6.53489   25.72931    9.57558    0    0    0
     116       39        2  0.42380000    7.04271   26.22741   10.21608    0    0    0
     117       39        2  0.42380000    7.06621   24.95283    9.39951    0    0    0
     118       40        1 -0.84760000   25.30924    6.95496    9.57558    0    0    0
     119       40        2  0.42380000   25.81706    7.45306   10.21608    0    0    0
     120       40        2  0.42380000   25.84056    6.17848    9.39951    0    0    0
     121       41        1 -0.84760000   24.84313   11.23434   30.79362    0    0    0
     122       41        2  0.42380000   24.51007   11.86123   31.43572    0    0    0
     123       41        2  0.42380000   25.01980   11.76052   30.01378    0    0    0
     124       42        1 -0.84760000   24.84313   30.00869   30.79362    0    0    0
     125       42        2  0.42380000   24.51007   30.63558   31.43572    0    0    0
     126       42        2  0.42380000   25.01980   30.53487   30.01378    0    0    0
     127       43        1 -0.84760000    6.06878   11.23434   12.01927    0    0    0
     128       43        2  0.42380000    5.73572   11.86123   12.66137    0    0    0
     129       44        1 -0.84760000    6.06878   11.23434   30.79362    0    0    0
     130       44        2  0.42380000    5.73572   11.86123   31.43572    0    0    0
     131       44        2  0.42380000    6.24545   11.76052   30.01378    0    0    0
     132       43        2  0.42380000    6.24545   11.76052   11.23943    0    0    0
     133       45        1 -0.84760000    6.06878   30.00869   12.01927    0    0    0
     134       45        2  0.42380000    5.73572   30.63558   12.66137    0    0    0
     135       45        2  0.42380000    6.24545   30.53487   11.23943    0    0    0
     136       46        1 -0.84760000   24.84313   11.23434   12.01927    0    0    0
     137       46        2  0.42380000   24.51007   11.86123   12.66137    0    0    0
     138       46        2  0.42380000   25.01980   11.76052   11.23943    0    0    0
     139       47        1 -0.84760000   33.35652    5.04884   28.26125    0    0    0
     140       47        2  0.42380000   32.65208    5.33733   28.84156    0    0    0
     141       47        2  0.42380000   33.71774    5.85886   27.90121    0    0    0
     142       48        1 -0.84760000   14.58217    5.04884   28.26125    0    0    0
     143       48        2  0.42380000   13.87773    5.33733   28.84156    0    0    0
     144       48        2  0.42380000   14.94339    5.85886   27.90121    0    0    0
     145       49        1 -0.84760000   14.58217    5.04884    9.48690    0    0    0
     146       49        2  0.42380000   13.87773    5.33733   10.06721    0    0    0
     147       49        2  0.42380000   14.94339    5.85886    9.12686    0    0    0
     148       50        1 -0.84760000   14.58217   23.82319   28.26125    0    0    0
     149       50        2  0.42380000   13.87773   24.11168   28.84156    0    0    0
     150       50        2  0.42380000   14.94339   24.63321   27.90121    0    0    0
     151       51        1 -0.84760000   33.35652    5.04884    9.48690    0    0    0
     152       51        2  0.42380000   32.65208    5.33733   10.06721    0    0    0
     153       51        2  0.42380000   33.71774    5.85886    9.12686    0    0    0
     154       52        1 -0.84760000   23.27438   22.08016   30.62331    0    0    0
     155       52        2  0.42380000   23.61606   22.92437   30.32870    0    0    0
     156       52        2  0.42380000   22.33596   22.22854   30.73985    0    0    0
     157       53        1 -0.84760000    4.50003    3.30581   30.62331    0    0    0
     158       53        2  0.42380000    4.84171    4.15002   30.32870    0    0    0
     159       53        2  0.42380000    3.56161    3.45419   30.73985    0    0    0
     160       54        1 -0.84760000    4.50003   22.08016   11.84896    0    0    0
     161       54        2  0.42380000    4.84171   22.92437   11.55435    0    0    0
     162       54        2  0.42380000    3.56161   22.22854   11.96550    0    0    0
     163       55        1 -0.84760000    4.50003   22.08016   30.62331    0    0    0
     164       55        2  0.42380000    4.84171   22.92437   30.32870    0    0    0
     165       55        2  0.42380000    3.56161   22.22854   30.73985    0    0    0
     166       56        1 -0.84760000   24.05504   31.97677   13.83419    0    0    0
     167       56        2  0.42380000   24.67244   32.65187   13.55263    0    0    0
     168       56        2  0.42380000   23.19435   32.38556   13.74294    0    0    0
     169       57        1 -0.84760000    5.28069   13.20242   13.83419    0    0    0
     170       57        2  0.42380000    5.89809   13.87752   13.55263    0    0    0
     171       57        2  0.42380000    4.42000   13.61121   13.74294    0    0    0
     172       58        1 -0.84760000    5.28069   31.97677   13.83419    0    0    0
     173       58        2  0.42380000    5.89809   32.65187   13.55263    0    0    0
     174       58        2  0.42380000    4.42000   32.38556   13.74294    0    0    0
     175       59        1 -0.84760000    5.28069   31.97677   32.60854    0    0    0
     176       59        2  0.42380000    5.89809   32.65187   32.32698    0    0    0
     177       59        2  0.42380000    4.42000   32.38556   32.51729    0    0    0
     178       60        1 -0.84760000   34.97280   14.66636   30.52400    0    0    0
     179       60        2  0.42380000   34.28915   15.33627   30.51567    0    0    0
     180       60        2  0.42380000   35.51223   14.86442   29.75849    0    0    0
     181       61        1 -0.84760000   34.97280   33.44071   11.74965    0    0    0
     182       61        2  0.42380000   34.28915   34.11062   11.74132    0    0    0
     183       61        2  0.42380000   35.51223   33.63877   10.98414    0    0    0
     184       62        1 -0.84760000   16.19845   33.44071   11.74965    0    0    0
     185       62        2  0.42380000   15.51480   34.11062   11.74132    0    0    0
     186       62        2  0.42380000   16.73788   33.63877   10.98414    0    0    0
     187       63        1 -0.84760000   16.19845   33.44071   30.52400    0    0    0
     188       63        2  0.42380000   15.51480   34.11062   30.51567    0    0    0
     189       63        2  0.42380000   16.73788   33.63877   29.75849    0    0    0
     190       64        1 -0.84760000   34.97280   14.66636   11.74965    0    0    0
     191       64        2  0.42380000   34.28915   15.33627   11.74132    0    0    0
     192       64        2  0.42380000   35.51223   14.86442   10.98414    0    0    0
     193       65        1 -0.84760000   26.95717    0.79404   26.94777    0    0    0
     194       65        2  0.42380000   27.26467    0.23873   26.23132    0    0    0
     195       65        2  0.42380000   26.02724    0.92849   26.76507    0    0    0
     196       66        1 -0.84760000    8.18282    0.79404   26.94777    0    0    0
     197       66        2  0.42380000    8.49032    0.23873   26.23132    0    0    0
     198       66        2  0.42380000    7.25289    0.92849   26.76507    0    0    0
     199       67        1 -0.84760000    8.18282   19.56839    8.17342    0    0    0
     200       67        2  0.42380000    8.49032   19.01308    7.45697    0    0    0
     201       67        2  0.42380000    7.25289   19.70284    7.99072    0    0    0
     202       68        1 -0.84760000   26.95717    0.79404    8.17342    0    0    0
     203       68        2  0.42380000   27.26467    0.23873    7.45697    0    0    0
     204       68        2  0.42380000   26.02724    0.92849    7.99072    0    0    0
     205       69        1 -0.84760000   29.34525    8.85892   23.68378    0    0    0
     206       69        2  0.42380000   28.41817    8.79266   23.91263    0    0    0
     207       69        2  0.42380000   29.49773    9.79694   23.56931    0    0    0
     208       70        1 -0.84760000   29.34525   27.63327   23.68378    0    0    0
     209       70        2  0.42380000   28.41817   27.56701   23.91263    0    0    0
     210       70        2  0.42380000   29.49773   28.57129   23.56931    0    0    0
     211       71        1 -0.84760000   10.57090    8.85892   23.68378    0    0    0
     212       71        2  0.42380000    9.64382    8.79266   23.91263    0    0    0
     213       71        2  0.42380000   10.72338    9.79694   23.56931    0    0    0
     214       72        1 -0.84760000   10.57090    8.85892    4.90943    0    0    0
     215       72        2  0.42380000    9.64382    8.79266    5.13828    0    0    0
     216       72        2  0.42380000   10.72338    9.79694    4.79496    0    0    0
     217       73        1 -0.84760000   10.57090   27.63327    4.90943    0    0    0
     218       73        2  0.42380000    9.64382   27.56701    5.13828    0    0    0
     219       73        2  0.42380000   10.72338   28.57129    4.79496    0    0    0
     220       74        1 -0.84760000   29.34525    8.85892    4.90943    0    0    0
     221       74        2  0.42380000   28.41817    8.79266    5.13828    0    0    0
     222       74        2  0.42380000   29.49773    9.79694    4.79496    0    0    0
     223       75        1 -0.84760000   29.33215    5.13062   20.68050    0    0    0
     224       75        2  0.42380000   28.39252    5.29202   20.76575    0    0    0
     225       75        2  0.42380000   29.65048    5.84919   20.13410    0    0    0
     226       76        1 -0.84760000   10.55780    5.13062   20.68050    0    0    0
     227       76        2  0.42380000    9.61817    5.29202   20.76575    0    0    0
     228       76        2  0.42380000   10.87613    5.84919   20.13410    0    0    0
     229       77        1 -0.84760000   10.55780    5.13062    1.90615    0    0    0
     230       77        2  0.42380000    9.61817    5.29202    1.99140    0    0    0
     231       77        2  0.42380000   10.87613    5.84919    1.35975    0    0    0
     232       78        1 -0.84760000   29.33215    5.13062    1.90615    0    0    0
     233       78        2  0.42380000   28.39252    5.29202    1.99140    0    0    0
     234       78        2  0.42380000   29.65048    5.84919    1.35975    0    0    0
     235       79        1 -0.84760000   35.85343    9.81248   30.65840    0    0    0
     236       79        2  0.42380000   35.02529    9.88179   30.18342    0    0    0
     237       79        2  0.42380000   36.44848   10.39791   30.18999    0    0    0
     238       80        1 -0.84760000   35.85343   28.58683   11.88405    0    0    0
     239       80        2  0.42380000   35.02529   28.65614   11.40907    0    0    0
     240       80        2  0.42380000   36.44848   29.17226   11.41564    0    0    0
     241       81        1 -0.84760000   35.85343   28.58683   30.65840    0    0    0
     242       81        2  0.42380000   35.02529   28.65614   30.18342    0    0    0
     243       81        2  0.42380000   36.44848   29.17226   30.18999    0    0    0
     244       82        1 -0.84760000   17.07908    9.81248   30.65840    0    0    0
     245       82        2  0.42380000   16.25094    9.88179   30.18342    0    0    0
     246       82        2  0.42380000   17.67413   10.39791   30.18999    0    0    0
     247       83        1 -0.84760000   17.07908    9.81248   11.88405    0    0    0
     248       83        2  0.42380000   16.25094    9.88179   11.40907    0    0    0
     249       84        1 -0.84760000   17.07908   28.58683   11.88405    0    0    0
     250       84        2  0.42380000   16.25094   28.65614   11.40907    0    0    0
     251       84        2  0.42380000   17.67413   29.17226   11.41564    0    0    0
     252       83        2  0.42380000   17.67413   10.39791   11.41564    0    0    0
     253       85        1 -0.84760000   17.07908   28.58683   30.65840    0    0    0
     254       85        2  0.42380000   16.25094   28.65614   30.18342    0    0    0
     255       85        2  0.42380000   17.67413   29.17226   30.18999    0    0    0
     256       86        1 -0.84760000   35.85343    9.81248   11.88405    0    0    0
     257       86        2  0.42380000   35.02529    9.88179   11.40907    0    0    0
     258       86        2  0.42380000   36.44848   10.39791   11.41564    0    0    0
     259       87        1 -0.84760000   24.95091   28.15975    7.69141    0    0    0
     260       87        2  0.42380000   24.54661   27.44747    7.19600    0    0    0
     261       87        2  0.42380000   25.03722   27.81507    8.58021    0    0    0
     262       88        1 -0.84760000    6.17656    9.38540   26.46576    0    0    0
     263       88        2  0.42380000    5.77226    8.67312   25.97035    0    0    0
     264       88        2  0.42380000    6.26287    9.04072   27.35456    0    0    0
     265       89        1 -0.84760000    6.17656   28.15975    7.69141    0    0    0
     266       89        2  0.42380000    5.77226   27.44747    7.19600    0    0    0
     267       89        2  0.42380000    6.26287   27.81507    8.58021    0    0    0
     268       90        1 -0.84760000    6.17656    9.38540    7.69141    0    0    0
     269       90        2  0.42380000    5.77226    8.67312    7.19600    0    0    0
     270       90        2  0.42380000    6.26287    9.04072    8.58021    0    0    0
     271       91        1 -0.84760000    6.17656   28.15975   26.46576    0    0    0
     272       91        2  0.42380000    5.77226   27.44747   25.97035    0    0    0
     273       91        2  0.42380000    6.26287   27.81507   27.35456    0    0    0
     274       92        1 -0.84760000   24.95091    9.38540    7.69141    0    0    0
     275       92        2  0.42380000   24.54661    8.67312    7.19600    0    0    0
     276       92        2  0.42380000   25.03722    9.04072    8.58021    0    0    0
     277       93        1 -0.84760000   24.51092   31.58467   35.28046    0    0    0
     278       93        2  0.42380000   23.61378   31.80867   35.52780    0    0    0
     279       93        2  0.42380000   24.53621   31.70817   34.33160    0    0    0
     280       94        1 -0.84760000    5.73657   12.81032   35.28046    0    0    0
     281       94        2  0.42380000    4.83943   13.03432   35.52780    0    0    0
     282       94        2  0.42380000    5.76186   12.93382   34.33160    0    0    0
     283       95        1 -0.84760000    5.73657   31.58467   16.50611    0    0    0
     284       95        2  0.42380000    4.83943   31.80867   16.75345    0    0    0
     285       95        2  0.42380000    5.76186   31.70817   15.55725    0    0    0
     286       96        1 -0.84760000    5.73657   12.81032   16.50611    0    0    0
     287       96        2  0.42380000    4.83943   13.03432   16.75345    0    0    0
     288       96        2  0.42380000    5.76186   12.93382   15.55725    0    0    0
     289       97        1 -0.84760000   25.13608   15.62383   36.06471    0    0    0
     290       97        2  0.42380000   25.10762   16.02812   35.19755    0    0    0
     291       97        2  0.42380000   24.97258   14.69486   35.90187    0    0    0
     292       98        1 -0.84760000    6.36173   15.62383   36.06471    0    0    0
     293       98        2  0.42380000    6.33327   16.02812   35.19755    0    0    0
     294       98        2  0.42380000    6.19823   14.69486   35.90187    0    0    0
     295       99        1 -0.84760000    6.36173   34.39818   17.29036    0    0    0
     296       99        2  0.42380000    6.33327   34.80247   16.42320    0    0    0
     297       99        2  0.42380000    6.19823   33.46921   17.12752    0    0    0
     298      100        1 -0.84760000    6.36173   15.62383   17.29036    0    0    0
     299      100        2  0.42380000    6.33327   16.02812   16.42320    0    0    0
     300      100        2  0.42380000    6.19823   14.69486   17.12752    0    0    0
     301      101        1 -0.84760000    6.36173   34.39818   36.06471    0    0    0
     302      101        2  0.42380000    6.33327   34.80247   35.19755    0    0    0
     303      101        2  0.42380000    6.19823   33.46921   35.90187    0    0    0
     304      102        1 -0.84760000   35.13316   19.68827    0.73434    0    0    0
     305      102        2  0.42380000   34.82042   19.78095    1.63424    0    0    0
     306      102        2  0.42380000   35.89441   20.26637    0.68408    0    0    0
     307      103        1 -0.84760000   35.13316   19.68827   19.50869    0    0    0
     308      103        2  0.42380000   34.82042   19.78095   20.40859    0    0    0
     309      103        2  0.42380000   35.89441   20.26637   19.45843    0    0    0
     310      104        1 -0.84760000   16.35881    0.91392   19.50869    0    0    0
     311      104        2  0.42380000   16.04607    1.00660   20.40859    0    0    0
     312      104        2  0.42380000   17.12006    1.49202   19.45843    0    0    0
     313      105        1 -0.84760000   16.35881   19.68827    0.73434    0    0    0
     314      105        2  0.42380000   16.04607   19.78095    1.63424    0    0    0
     315      105        2  0.42380000   17.12006   20.26637    0.68408    0    0    0
     316      106        1 -0.84760000   16.35881   19.68827   19.50869    0    0    0
     317      106        2  0.42380000   16.04607   19.78095   20.40859    0    0    0
     318      106        2  0.42380000   17.12006   20.26637   19.45843    0    0    0
     319      107        1 -0.84760000   20.53467   31.92578    7.40955    0    0    0
     320      107        2  0.42380000   20.12748   32.06724    6.55491    0    0    0
     321      107        2  0.42380000   21.42597   31.64180    7.20667    0    0    0
     322      108        1 -0.84760000   20.53467   31.92578   26.18390    0    0    0
     323      108        2  0.42380000   20.12748   32.06724   25.32926    0    0    0
     324      108        2  0.42380000   21.42597   31.64180   25.98102    0    0    0
     325      109        1 -0.84760000    1.76032   13.15143    7.40955    0    0    0
     326      109        2  0.42380000    1.35313   13.29289    6.55491    0    0    0
     327      109        2  0.42380000    2.65162   12.86745    7.20667    0    0    0
     328      110        1 -0.84760000    1.76032   31.92578   26.18390    0    0    0
     329      110        2  0.42380000    1.35313   32.06724   25.32926    0    0    0
     330      110        2  0.42380000    2.65162   31.64180   25.98102    0    0    0
     331      111        1 -0.84760000   36.49089   32.37217   15.74678    0    0    0
     332      111        2  0.42380000   36.61719   32.13336   14.82850    0    0    0
     333      111        2  0.42380000   36.53302   31.54062   16.21899    0    0    0
     334      112        1 -0.84760000   17.71654   13.59782   34.52113    0    0    0
     335      112        2  0.42380000   17.84284   13.35901   33.60285    0    0    0
     336      112        2  0.42380000   17.75867   12.76627   34.99334    0    0    0