Created by /home/xiruan/ATLAS-toolkit/scripts/createLammpsInput.pl on Fri Jan 10 11:00:55 2025

        1416 atoms
         784 bonds
         392 angles

           4 atom types
           1 bond types
           1 angle types

		   0.000000  37.548700 xlo xhi
		   0.000000  37.548700 ylo yhi
		   0.000000  37.548700 zlo zhi

Masses

    1 1.5999E+01 # OW     
    2 1.0080E+00 # HW     
    3 6.9400E+00 # Li+    
    4 3.5450E+01 # Cl-    

Pair Coeffs

    1    0.15550    3.16599 # OW OW 
    2    0.00000    1.00000 # HW HW 
    3    0.33673    1.40940 # Li+ Li+ 
    4    0.01278    4.83045 # Cl- Cl- 

Bond Coeffs

    1     5530        1 # HW OW 

Angle Coeffs

    1     1000   109.47 # HW OW HW 

Atoms

       1        1        1 -0.84760000   11.96039    8.35310    7.66648    0    0    0
       2        2        2  0.42380000   30.32119   27.62416   25.73480    0    0    0
       3        1        2  0.42380000   11.87980    7.43856    7.39565    0    0    0
       4        1        2  0.42380000   11.54684    8.84981    6.96045    0    0    0
       5        3        1 -0.84760000   11.96039   27.12745   26.44083    0    0    0
       6        3        2  0.42380000   11.87980   26.21291   26.17000    0    0    0
       7        3        2  0.42380000   11.54684   27.62416   25.73480    0    0    0
       8        4        1 -0.84760000   30.73474    8.35310   26.44083    0    0    0
       9        4        2  0.42380000   30.65415    7.43856   26.17000    0    0    0
      10        4        2  0.42380000   30.32119    8.84981   25.73480    0    0    0
      11        2        1 -0.84760000   30.73474   27.12745   26.44083    0    0    0
      12        2        2  0.42380000   30.65415   26.21291   26.17000    0    0    0
      13        5        1 -0.84760000   32.88729   33.31137    8.32732    0    0    0
      14        5        2  0.42380000   32.42544   32.54010    8.65603    0    0    0
      15        5        2  0.42380000   33.69985   33.33798    8.83256    0    0    0
      16        6        1 -0.84760000   32.88729   33.31137   27.10167    0    0    0
      17        6        2  0.42380000   32.42544   32.54010   27.43038    0    0    0
      18        6        2  0.42380000   33.69985   33.33798   27.60691    0    0    0
      19        7        1 -0.84760000   14.11294   14.53702   27.10167    0    0    0
      20        7        2  0.42380000   13.65109   13.76575   27.43038    0    0    0
      21        7        2  0.42380000   14.92550   14.56363   27.60691    0    0    0
      22        8        1 -0.84760000   14.11294   33.31137    8.32732    0    0    0
      23        8        2  0.42380000   13.65109   32.54010    8.65603    0    0    0
      24        8        2  0.42380000   14.92550   33.33798    8.83256    0    0    0
      25        9        1 -0.84760000   14.11294   33.31137   27.10167    0    0    0
      26        9        2  0.42380000   13.65109   32.54010   27.43038    0    0    0
      27        9        2  0.42380000   14.92550   33.33798   27.60691    0    0    0
      28       10        1 -0.84760000   21.29233   24.17753    4.20922    0    0    0
      29       10        2  0.42380000   20.40400   24.51912    4.10721    0    0    0
      30       10        2  0.42380000   21.57644   23.97756    3.31730    0    0    0
      31       11        1 -0.84760000   21.29233   24.17753   22.98357    0    0    0
      32       11        2  0.42380000   20.40400   24.51912   22.88156    0    0    0
      33       11        2  0.42380000   21.57644   23.97756   22.09165    0    0    0
      34       12        1 -0.84760000    2.51798    5.40318    4.20922    0    0    0
      35       12        2  0.42380000    1.62965    5.74477    4.10721    0    0    0
      36       12        2  0.42380000    2.80209    5.20321    3.31730    0    0    0
      37       13        1 -0.84760000   21.29233    5.40318    4.20922    0    0    0
      38       13        2  0.42380000   20.40400    5.74477    4.10721    0    0    0
      39       13        2  0.42380000   21.57644    5.20321    3.31730    0    0    0
      40       14        1 -0.84760000   19.25563    8.00374   28.86754    0    0    0
      41       14        2  0.42380000   19.82724    7.23596   28.86790    0    0    0
      42       14        2  0.42380000   19.25578    8.30262   27.95820    0    0    0
      43       15        1 -0.84760000    0.48128    8.00374   28.86754    0    0    0
      44       15        2  0.42380000    1.05289    7.23596   28.86790    0    0    0
      45       15        2  0.42380000    0.48143    8.30262   27.95820    0    0    0
      46       16        1 -0.84760000    0.48128   26.77809   10.09319    0    0    0
      47       16        2  0.42380000    1.05289   26.01031   10.09355    0    0    0
      48       16        2  0.42380000    0.48143   27.07697    9.18385    0    0    0
      49       17        1 -0.84760000    0.48128   26.77809   28.86754    0    0    0
      50       17        2  0.42380000    1.05289   26.01031   28.86790    0    0    0
      51       17        2  0.42380000    0.48143   27.07697   27.95820    0    0    0
      52       18        1 -0.84760000   10.56361    5.61376    9.78131    0    0    0
      53       18        2  0.42380000   10.94010    4.74095    9.66868    0    0    0
      54       18        2  0.42380000   10.46556    5.94963    8.89036    0    0    0
      55       19        1 -0.84760000   10.56361    5.61376   28.55566    0    0    0
      56       19        2  0.42380000   10.94010    4.74095   28.44303    0    0    0
      57       19        2  0.42380000   10.46556    5.94963   27.66471    0    0    0
      58       20        1 -0.84760000   10.56361   24.38811   28.55566    0    0    0
      59       20        2  0.42380000   10.94010   23.51530   28.44303    0    0    0
      60       20        2  0.42380000   10.46556   24.72398   27.66471    0    0    0
      61       21        1 -0.84760000   29.33796    5.61376    9.78131    0    0    0
      62       21        2  0.42380000   29.71445    4.74095    9.66868    0    0    0
      63       21        2  0.42380000   29.23991    5.94963    8.89036    0    0    0
      64       22        2  0.42380000   22.55770   22.71247   23.72687    0    0    0
      65       23        1 -0.84760000    4.69411    3.98633   24.01741    0    0    0
      66       23        2  0.42380000    4.80079    4.88670   24.32428    0    0    0
      67       23        2  0.42380000    3.78335    3.93812   23.72687    0    0    0
      68       24        1 -0.84760000    4.69411   22.76068    5.24306    0    0    0
      69       24        2  0.42380000    4.80079   23.66105    5.54993    0    0    0
      70       24        2  0.42380000    3.78335   22.71247    4.95252    0    0    0
      71       25        1 -0.84760000    4.69411   22.76068   24.01741    0    0    0
      72       25        2  0.42380000    4.80079   23.66105   24.32428    0    0    0
      73       25        2  0.42380000    3.78335   22.71247   23.72687    0    0    0
      74       26        1 -0.84760000   23.46846    3.98633    5.24306    0    0    0
      75       26        2  0.42380000   23.57514    4.88670    5.54993    0    0    0
      76       26        2  0.42380000   22.55770    3.93812    4.95252    0    0    0
      77       27        1 -0.84760000   23.46846    3.98633   24.01741    0    0    0
      78       27        2  0.42380000   23.57514    4.88670   24.32428    0    0    0
      79       27        2  0.42380000   22.55770    3.93812   23.72687    0    0    0
      80       28        1 -0.84760000   23.46846   22.76068    5.24306    0    0    0
      81       28        2  0.42380000   23.57514   23.66105    5.54993    0    0    0
      82       28        2  0.42380000   22.55770   22.71247    4.95252    0    0    0
      83       22        1 -0.84760000   23.46846   22.76068   24.01741    0    0    0
      84       22        2  0.42380000   23.57514   23.66105   24.32428    0    0    0
      85       29        1 -0.84760000   21.11678   24.68258   10.48832    0    0    0
      86       29        2  0.42380000   21.79779   24.94641   11.10706    0    0    0
      87       29        2  0.42380000   20.80159   23.84266   10.82212    0    0    0
      88       30        1 -0.84760000    2.34243    5.90823   10.48832    0    0    0
      89       30        2  0.42380000    3.02344    6.17206   11.10706    0    0    0
      90       30        2  0.42380000    2.02724    5.06831   10.82212    0    0    0
      91       31        1 -0.84760000    2.34243   24.68258   10.48832    0    0    0
      92       31        2  0.42380000    3.02344   24.94641   11.10706    0    0    0
      93       31        2  0.42380000    2.02724   23.84266   10.82212    0    0    0
      94       32        1 -0.84760000   21.11678    5.90823   10.48832    0    0    0
      95       32        2  0.42380000   21.79779    6.17206   11.10706    0    0    0
      96       32        2  0.42380000   20.80159    5.06831   10.82212    0    0    0
      97       33        1 -0.84760000   25.30924    6.95496   28.34993    0    0    0
      98       33        2  0.42380000   25.81706    7.45306   28.99043    0    0    0
      99       33        2  0.42380000   25.84056    6.17848   28.17386    0    0    0
     100       34        1 -0.84760000   25.30924   25.72931   28.34993    0    0    0
     101       34        2  0.42380000   25.81706   26.22741   28.99043    0    0    0
     102       34        2  0.42380000   25.84056   24.95283   28.17386    0    0    0
     103       35        1 -0.84760000    6.53489    6.95496    9.57558    0    0    0
     104       35        2  0.42380000    7.04271    7.45306   10.21608    0    0    0
     105       35        2  0.42380000    7.06621    6.17848    9.39951    0    0    0
     106       36        1 -0.84760000    6.53489    6.95496   28.34993    0    0    0
     107       36        2  0.42380000    7.04271    7.45306   28.99043    0    0    0
     108       36        2  0.42380000    7.06621    6.17848   28.17386    0    0    0
     109       37        1 -0.84760000    6.53489   25.72931    9.57558    0    0    0
     110       37        2  0.42380000    7.04271   26.22741   10.21608    0    0    0
     111       37        2  0.42380000    7.06621   24.95283    9.39951    0    0    0
     112       38        1 -0.84760000    6.53489   25.72931   28.34993    0    0    0
     113       38        2  0.42380000    7.04271   26.22741   28.99043    0    0    0
     114       38        2  0.42380000    7.06621   24.95283   28.17386    0    0    0
     115       39        1 -0.84760000   23.59285    1.59482   32.61627    0    0    0
     116       39        2  0.42380000   23.59469    2.11206   31.81086    0    0    0
     117       39        2  0.42380000   22.76328    1.11784   32.59326    0    0    0
     118       40        1 -0.84760000   23.59285   20.36917   13.84192    0    0    0
     119       40        2  0.42380000   23.59469   20.88641   13.03651    0    0    0
     120       40        2  0.42380000   22.76328   19.89219   13.81891    0    0    0
     121       41        1 -0.84760000    4.81850    1.59482   13.84192    0    0    0
     122       41        2  0.42380000    4.82034    2.11206   13.03651    0    0    0
     123       42        1 -0.84760000    4.81850    1.59482   32.61627    0    0    0
     124       42        2  0.42380000    4.82034    2.11206   31.81086    0    0    0
     125       42        2  0.42380000    3.98893    1.11784   32.59326    0    0    0
     126       41        2  0.42380000    3.98893    1.11784   13.81891    0    0    0
     127       43        1 -0.84760000    4.81850   20.36917   13.84192    0    0    0
     128       43        2  0.42380000    4.82034   20.88641   13.03651    0    0    0
     129       43        2  0.42380000    3.98893   19.89219   13.81891    0    0    0
     130       44        1 -0.84760000   23.59285    1.59482   13.84192    0    0    0
     131       44        2  0.42380000   23.59469    2.11206   13.03651    0    0    0
     132       44        2  0.42380000   22.76328    1.11784   13.81891    0    0    0
     133       45        1 -0.84760000   29.97996   11.70675   24.11526    0    0    0
     134       45        2  0.42380000   29.36168   12.17169   23.55153    0    0    0
     135       45        2  0.42380000   30.49228   12.39950   24.53221    0    0    0
     136       46        1 -0.84760000   29.97996   30.48110   24.11526    0    0    0
     137       46        2  0.42380000   29.36168   30.94604   23.55153    0    0    0
     138       46        2  0.42380000   30.49228   31.17385   24.53221    0    0    0
     139       47        1 -0.84760000   11.20561   11.70675   24.11526    0    0    0
     140       47        2  0.42380000   10.58733   12.17169   23.55153    0    0    0
     141       47        2  0.42380000   11.71793   12.39950   24.53221    0    0    0
     142       48        1 -0.84760000   11.20561   11.70675    5.34091    0    0    0
     143       48        2  0.42380000   10.58733   12.17169    4.77718    0    0    0
     144       48        2  0.42380000   11.71793   12.39950    5.75786    0    0    0
     145       49        1 -0.84760000   11.20561   30.48110    5.34091    0    0    0
     146       49        2  0.42380000   10.58733   30.94604    4.77718    0    0    0
     147       49        2  0.42380000   11.71793   31.17385    5.75786    0    0    0
     148       50        1 -0.84760000   11.20561   30.48110   24.11526    0    0    0
     149       50        2  0.42380000   10.58733   30.94604   23.55153    0    0    0
     150       50        2  0.42380000   11.71793   31.17385   24.53221    0    0    0
     151       51        1 -0.84760000   36.42522    4.49432   28.65217    0    0    0
     152       51        2  0.42380000   35.47771    4.52822   28.78372    0    0    0
     153       51        2  0.42380000   36.75021    5.30822   29.03711    0    0    0
     154       52        1 -0.84760000   36.42522   23.26867    9.87782    0    0    0
     155       52        2  0.42380000   35.47771   23.30257   10.00937    0    0    0
     156       52        2  0.42380000   36.75021   24.08257   10.26276    0    0    0
     157       53        1 -0.84760000   36.42522   23.26867   28.65217    0    0    0
     158       53        2  0.42380000   35.47771   23.30257   28.78372    0    0    0
     159       53        2  0.42380000   36.75021   24.08257   29.03711    0    0    0
     160       54        1 -0.84760000   33.80322   13.23239   24.32753    0    0    0
     161       54        2  0.42380000   33.69285   12.28983   24.45248    0    0    0
     162       54        2  0.42380000   33.80004   13.59396   25.21381    0    0    0
     163       55        1 -0.84760000   33.80322   32.00674   24.32753    0    0    0
     164       55        2  0.42380000   33.69285   31.06418   24.45248    0    0    0
     165       55        2  0.42380000   33.80004   32.36831   25.21381    0    0    0
     166       56        1 -0.84760000   15.02887   13.23239   24.32753    0    0    0
     167       56        2  0.42380000   14.91850   12.28983   24.45248    0    0    0
     168       56        2  0.42380000   15.02569   13.59396   25.21381    0    0    0
     169       57        1 -0.84760000   15.02887   32.00674    5.55318    0    0    0
     170       57        2  0.42380000   14.91850   31.06418    5.67813    0    0    0
     171       57        2  0.42380000   15.02569   32.36831    6.43946    0    0    0
     172       58        1 -0.84760000   15.02887   32.00674   24.32753    0    0    0
     173       58        2  0.42380000   14.91850   31.06418   24.45248    0    0    0
     174       58        2  0.42380000   15.02569   32.36831   25.21381    0    0    0
     175       59        1 -0.84760000   33.80322   13.23239    5.55318    0    0    0
     176       59        2  0.42380000   33.69285   12.28983    5.67813    0    0    0
     177       59        2  0.42380000   33.80004   13.59396    6.43946    0    0    0
     178       60        1 -0.84760000   29.34525   27.63327    4.90943    0    0    0
     179       60        2  0.42380000   28.41817   27.56701    5.13828    0    0    0
     180       60        2  0.42380000   29.49773   28.57129    4.79496    0    0    0
     181       61        1 -0.84760000   10.57090    8.85892   23.68378    0    0    0
     182       61        2  0.42380000    9.64382    8.79266   23.91263    0    0    0
     183       61        2  0.42380000   10.72338    9.79694   23.56931    0    0    0
     184       62        1 -0.84760000   29.34525    8.85892    4.90943    0    0    0
     185       62        2  0.42380000   28.41817    8.79266    5.13828    0    0    0
     186       62        2  0.42380000   29.49773    9.79694    4.79496    0    0    0
     187       63        1 -0.84760000   32.81763   25.37376   12.82954    0    0    0
     188       63        2  0.42380000   32.40475   26.19913   13.08354    0    0    0
     189       63        2  0.42380000   32.08523   24.78826   12.63718    0    0    0
     190       64        1 -0.84760000   14.04328    6.59941   31.60389    0    0    0
     191       64        2  0.42380000   13.63040    7.42478   31.85789    0    0    0
     192       64        2  0.42380000   13.31088    6.01391   31.41153    0    0    0
     193       65        1 -0.84760000   14.04328    6.59941   12.82954    0    0    0
     194       65        2  0.42380000   13.63040    7.42478   13.08354    0    0    0
     195       65        2  0.42380000   13.31088    6.01391   12.63718    0    0    0
     196       66        1 -0.84760000   14.04328   25.37376   12.82954    0    0    0
     197       66        2  0.42380000   13.63040   26.19913   13.08354    0    0    0
     198       66        2  0.42380000   13.31088   24.78826   12.63718    0    0    0
     199       67        1 -0.84760000   14.04328   25.37376   31.60389    0    0    0
     200       67        2  0.42380000   13.63040   26.19913   31.85789    0    0    0
     201       67        2  0.42380000   13.31088   24.78826   31.41153    0    0    0
     202       68        1 -0.84760000   31.55144   28.43399    2.42023    0    0    0
     203       68        2  0.42380000   31.99077   27.59623    2.27402    0    0    0
     204       68        2  0.42380000   32.26429   29.06693    2.50665    0    0    0
     205       69        1 -0.84760000   31.55144   28.43399   21.19458    0    0    0
     206       69        2  0.42380000   31.99077   27.59623   21.04837    0    0    0
     207       69        2  0.42380000   32.26429   29.06693   21.28100    0    0    0
     208       70        1 -0.84760000   12.77709    9.65964   21.19458    0    0    0
     209       70        2  0.42380000   13.21642    8.82188   21.04837    0    0    0
     210       70        2  0.42380000   13.48994   10.29258   21.28100    0    0    0
     211       71        1 -0.84760000   12.77709   28.43399   21.19458    0    0    0
     212       71        2  0.42380000   13.21642   27.59623   21.04837    0    0    0
     213       71        2  0.42380000   13.48994   29.06693   21.28100    0    0    0
     214       72        1 -0.84760000   23.33804    9.68166   33.85619    0    0    0
     215       72        2  0.42380000   23.19882   10.55394   34.22493    0    0    0
     216       72        2  0.42380000   22.45618    9.33894   33.71099    0    0    0
     217       73        1 -0.84760000    4.56369    9.68166   33.85619    0    0    0
     218       73        2  0.42380000    4.42447   10.55394   34.22493    0    0    0
     219       73        2  0.42380000    3.68183    9.33894   33.71099    0    0    0
     220       74        1 -0.84760000    4.56369    9.68166   15.08184    0    0    0
     221       74        2  0.42380000    4.42447   10.55394   15.45058    0    0    0
     222       74        2  0.42380000    3.68183    9.33894   14.93664    0    0    0
     223       75        1 -0.84760000    4.56369   28.45601   15.08184    0    0    0
     224       75        2  0.42380000    4.42447   29.32829   15.45058    0    0    0
     225       75        2  0.42380000    3.68183   28.11329   14.93664    0    0    0
     226       76        1 -0.84760000   23.33804    9.68166   15.08184    0    0    0
     227       76        2  0.42380000   23.19882   10.55394   15.45058    0    0    0
     228       76        2  0.42380000   22.45618    9.33894   14.93664    0    0    0
     229       77        1 -0.84760000   29.66098   14.59924   25.16271    0    0    0
     230       77        2  0.42380000   30.10057   15.34168   24.74825    0    0    0
     231       77        2  0.42380000   29.59967   14.84190   26.08660    0    0    0
     232       78        1 -0.84760000   29.66098   33.37359    6.38836    0    0    0
     233       78        2  0.42380000   30.10057   34.11603    5.97390    0    0    0
     234       78        2  0.42380000   29.59967   33.61625    7.31225    0    0    0
     235       79        1 -0.84760000   29.66098   33.37359   25.16271    0    0    0
     236       79        2  0.42380000   30.10057   34.11603   24.74825    0    0    0
     237       79        2  0.42380000   29.59967   33.61625   26.08660    0    0    0
     238       80        1 -0.84760000   10.88663   33.37359   25.16271    0    0    0
     239       80        2  0.42380000   11.32622   34.11603   24.74825    0    0    0
     240       80        2  0.42380000   10.82532   33.61625   26.08660    0    0    0
     241       81        1 -0.84760000   25.13608   15.62383   17.29036    0    0    0
     242       81        2  0.42380000   25.10762   16.02812   16.42320    0    0    0
     243       81        2  0.42380000   24.97258   14.69486   17.12752    0    0    0
     244       82        1 -0.84760000   25.13608   15.62383   36.06471    0    0    0
     245       82        2  0.42380000   25.10762   16.02812   35.19755    0    0    0
     246       82        2  0.42380000   24.97258   14.69486   35.90187    0    0    0
     247       83        1 -0.84760000   25.13608   34.39818   36.06471    0    0    0
     248       83        2  0.42380000   25.10762   34.80247   35.19755    0    0    0
     249       83        2  0.42380000   24.97258   33.46921   35.90187    0    0    0
     250       84        1 -0.84760000    6.36173   15.62383   36.06471    0    0    0
     251       84        2  0.42380000    6.33327   16.02812   35.19755    0    0    0
     252       84        2  0.42380000    6.19823   14.69486   35.90187    0    0    0
     253       85        1 -0.84760000    6.36173   15.62383   17.29036    0    0    0
     254       86        1 -0.84760000    6.36173   34.39818   17.29036    0    0    0
     255       86        2  0.42380000    6.33327   34.80247   16.42320    0    0    0
     256       86        2  0.42380000    6.19823   33.46921   17.12752    0    0    0
     257       85        2  0.42380000    6.33327   16.02812   16.42320    0    0    0
     258       85        2  0.42380000    6.19823   14.69486   17.12752    0    0    0
     259       87        1 -0.84760000   21.65137    8.27990    5.19207    0    0    0
     260       87        2  0.42380000   21.53113    9.00611    4.58020    0    0    0
     261       87        2  0.42380000   21.34146    7.51019    4.71486    0    0    0
     262       88        1 -0.84760000   21.65137   27.05425    5.19207    0    0    0
     263       88        2  0.42380000   21.53113   27.78046    4.58020    0    0    0
     264       88        2  0.42380000   21.34146   26.28454    4.71486    0    0    0
     265       89        1 -0.84760000   21.65137   27.05425   23.96642    0    0    0
     266       89        2  0.42380000   21.53113   27.78046   23.35455    0    0    0
     267       89        2  0.42380000   21.34146   26.28454   23.48921    0    0    0
     268       90        1 -0.84760000    2.87702    8.27990   23.96642    0    0    0
     269       90        2  0.42380000    2.75678    9.00611   23.35455    0    0    0
     270       90        2  0.42380000    2.56711    7.51019   23.48921    0    0    0
     271       91        1 -0.84760000    2.87702    8.27990    5.19207    0    0    0
     272       91        2  0.42380000    2.75678    9.00611    4.58020    0    0    0
     273       91        2  0.42380000    2.56711    7.51019    4.71486    0    0    0
     274       92        1 -0.84760000   19.28991   11.45141   10.99894    0    0    0
     275       92        2  0.42380000   19.36795   11.58629   10.05451    0    0    0
     276       92        2  0.42380000   19.90408   10.74300   11.19175    0    0    0
     277       93        1 -0.84760000   19.28991   11.45141   29.77329    0    0    0
     278       93        2  0.42380000   19.36795   11.58629   28.82886    0    0    0
     279       93        2  0.42380000   19.90408   10.74300   29.96610    0    0    0
     280       94        1 -0.84760000   19.28991   30.22576   10.99894    0    0    0
     281       94        2  0.42380000   19.36795   30.36064   10.05451    0    0    0
     282       94        2  0.42380000   19.90408   29.51735   11.19175    0    0    0
     283       95        1 -0.84760000    0.51556   11.45141   29.77329    0    0    0
     284       95        2  0.42380000    0.59360   11.58629   28.82886    0    0    0
     285       95        2  0.42380000    1.12973   10.74300   29.96610    0    0    0
     286       96        1 -0.84760000    0.51556   30.22576   29.77329    0    0    0
     287       96        2  0.42380000    0.59360   30.36064   28.82886    0    0    0
     288       96        2  0.42380000    1.12973   29.51735   29.96610    0    0    0
     289       97        1 -0.84760000   20.53467   13.15143   26.18390    0    0    0
     290       97        2  0.42380000   20.12748   13.29289   25.32926    0    0    0
     291       97        2  0.42380000   21.42597   12.86745   25.98102    0    0    0
     292       98        1 -0.84760000   20.53467   31.92578    7.40955    0    0    0
     293       98        2  0.42380000   20.12748   32.06724    6.55491    0    0    0
     294       98        2  0.42380000   21.42597   31.64180    7.20667    0    0    0
     295       99        1 -0.84760000    1.76032   13.15143   26.18390    0    0    0
     296       99        2  0.42380000    1.35313   13.29289   25.32926    0    0    0
     297       99        2  0.42380000    2.65162   12.86745   25.98102    0    0    0
     298      100        1 -0.84760000    1.76032   31.92578    7.40955    0    0    0
     299      100        2  0.42380000    1.35313   32.06724    6.55491    0    0    0
     300      100        2  0.42380000    2.65162   31.64180    7.20667    0    0    0
     301      101        1 -0.84760000    1.76032   13.15143    7.40955    0    0    0
     302      101        2  0.42380000    1.35313   13.29289    6.55491    0    0    0
     303      101        2  0.42380000    2.65162   12.86745    7.20667    0    0    0
     304      102        1 -0.84760000    1.76032   31.92578   26.18390    0    0    0
     305      102        2  0.42380000    1.35313   32.06724   25.32926    0    0    0
     306      102        2  0.42380000    2.65162   31.64180   25.98102    0    0    0
     307      103        1 -0.84760000   24.80684   17.36601    5.52182    0    0    0
     308      103        2  0.42380000   24.63109   16.44956    5.30860    0    0    0
     309      103        2  0.42380000   23.95241   17.72474    5.76160    0    0    0
     310      104        1 -0.84760000   24.80684   17.36601   24.29617    0    0    0
     311      104        2  0.42380000   24.63109   16.44956   24.08295    0    0    0
     312      104        2  0.42380000   23.95241   17.72474   24.53595    0    0    0
     313      105        1 -0.84760000   24.80684   36.14036    5.52182    0    0    0
     314      105        2  0.42380000   24.63109   35.22391    5.30860    0    0    0
     315      105        2  0.42380000   23.95241   36.49909    5.76160    0    0    0
     316      106        1 -0.84760000   24.80684   36.14036   24.29617    0    0    0
     317      106        2  0.42380000   24.63109   35.22391   24.08295    0    0    0
     318      106        2  0.42380000   23.95241   36.49909   24.53595    0    0    0
     319      107        1 -0.84760000    6.03249   17.36601   24.29617    0    0    0
     320      107        2  0.42380000    5.85674   16.44956   24.08295    0    0    0
     321      107        2  0.42380000    5.17806   17.72474   24.53595    0    0    0
     322      108        1 -0.84760000    6.03249   36.14036    5.52182    0    0    0
     323      108        2  0.42380000    5.85674   35.22391    5.30860    0    0    0
     324      108        2  0.42380000    5.17806   36.49909    5.76160    0    0    0
     325      109        1 -0.84760000    6.03249   36.14036   24.29617    0    0    0
     326      109        2  0.42380000    5.85674   35.22391   24.08295    0    0    0
     327      109        2  0.42380000    5.17806   36.49909   24.53595    0    0    0
     328      110        1 -0.84760000   32.03061   15.09491    2.30446    0    0    0
     329      110        2  0.42380000   31.33713   15.09264    1.64469    0    0    0
     330      110        2  0.42380000   32.77290   14.67084    1.87388    0    0    0
     331      111        1 -0.84760000   13.25626   15.09491   21.07881    0    0    0
     332      111        2  0.42380000   12.56278   15.09264   20.41904    0    0    0
     333      111        2  0.42380000   13.99855   14.67084   20.64823    0    0    0
     334      112        1 -0.84760000   13.25626   33.86926    2.30446    0    0    0
     335      112        2  0.42380000   12.56278   33.86699    1.64469    0    0    0
     336      112        2  0.42380000   13.99855   33.44519    1.87388    0    0    0