Created by /home/xiruan/ATLAS-toolkit/scripts/createLammpsInput.pl on Wed Nov 13 00:41:16 2024

         912 atoms
         488 bonds
         244 angles

           4 atom types
           1 bond types
           1 angle types

		   0.000000  37.548700 xlo xhi
		   0.000000  37.548700 ylo yhi
		   0.000000  37.548700 zlo zhi

Masses

    1 1.5999E+01 # OW     
    2 1.0080E+00 # HW     
    3 6.9400E+00 # Li+    
    4 3.5450E+01 # Cl-    

Pair Coeffs

    1    0.15550    3.16599 # OW OW 
    2    0.00000    1.00000 # HW HW 
    3    0.33673    1.40940 # Li+ Li+ 
    4    0.01278    4.83045 # Cl- Cl- 

Bond Coeffs

    1     5530        1 # HW OW 

Angle Coeffs

    1     1000   109.47 # HW OW HW 

Atoms

       1        1        1 -0.84760000    4.10878   29.21734   10.42498    0    0    0
       2        1        2  0.42380000    3.27727   28.96221   10.82463    0    0    0
       3        1        2  0.42380000    4.71688   29.28841   11.16077    0    0    0
       4        2        1 -0.84760000   22.88313   10.44299   10.42498    0    0    0
       5        2        2  0.42380000   22.05162   10.18786   10.82463    0    0    0
       6        2        2  0.42380000   23.49123   10.51406   11.16077    0    0    0
       7        3        1 -0.84760000   22.88313   10.44299   29.19933    0    0    0
       8        3        2  0.42380000   22.05162   10.18786   29.59898    0    0    0
       9        3        2  0.42380000   23.49123   10.51406   29.93512    0    0    0
      10        4        1 -0.84760000    4.10878   10.44299   29.19933    0    0    0
      11        4        2  0.42380000    3.27727   10.18786   29.59898    0    0    0
      12        4        2  0.42380000    4.71688   10.51406   29.93512    0    0    0
      13        5        1 -0.84760000   22.86326   33.25135   29.39513    0    0    0
      14        5        2  0.42380000   23.16606   32.36112   29.21615    0    0    0
      15        5        2  0.42380000   23.60762   33.80837   29.16736    0    0    0
      16        6        1 -0.84760000    4.08891   14.47700   29.39513    0    0    0
      17        6        2  0.42380000    4.39171   13.58677   29.21615    0    0    0
      18        6        2  0.42380000    4.83327   15.03402   29.16736    0    0    0
      19        7        1 -0.84760000    4.08891   33.25135   29.39513    0    0    0
      20        7        2  0.42380000    4.39171   32.36112   29.21615    0    0    0
      21        7        2  0.42380000    4.83327   33.80837   29.16736    0    0    0
      22        8        1 -0.84760000   22.86326   14.47700   10.62078    0    0    0
      23        8        2  0.42380000   23.16606   13.58677   10.44180    0    0    0
      24        8        2  0.42380000   23.60762   15.03402   10.39301    0    0    0
      25        9        1 -0.84760000   22.86326   14.47700   29.39513    0    0    0
      26        9        2  0.42380000   23.16606   13.58677   29.21615    0    0    0
      27        9        2  0.42380000   23.60762   15.03402   29.16736    0    0    0
      28       10        1 -0.84760000   22.86326   33.25135   10.62078    0    0    0
      29       10        2  0.42380000   23.16606   32.36112   10.44180    0    0    0
      30       10        2  0.42380000   23.60762   33.80837   10.39301    0    0    0
      31       11        1 -0.84760000   29.11362   35.59718   26.72207    0    0    0
      32       11        2  0.42380000   28.49477   36.05293   26.15151    0    0    0
      33       11        2  0.42380000   29.96880   35.75232   26.32104    0    0    0
      34       12        1 -0.84760000   10.33927   35.59718    7.94772    0    0    0
      35       12        2  0.42380000    9.72042   36.05293    7.37716    0    0    0
      36       12        2  0.42380000   11.19445   35.75232    7.54669    0    0    0
      37       13        1 -0.84760000   10.33927   35.59718   26.72207    0    0    0
      38       13        2  0.42380000    9.72042   36.05293   26.15151    0    0    0
      39       13        2  0.42380000   11.19445   35.75232   26.32104    0    0    0
      40       14        1 -0.84760000   29.11362   16.82283    7.94772    0    0    0
      41       14        2  0.42380000   28.49477   17.27858    7.37716    0    0    0
      42       14        2  0.42380000   29.96880   16.97797    7.54669    0    0    0
      43       15        1 -0.84760000   29.11362   35.59718    7.94772    0    0    0
      44       15        2  0.42380000   28.49477   36.05293    7.37716    0    0    0
      45       15        2  0.42380000   29.96880   35.75232    7.54669    0    0    0
      46       16        1 -0.84760000    9.53310   12.80672    9.55442    0    0    0
      47       16        2  0.42380000    9.46392   11.86572    9.39333    0    0    0
      48       17        1 -0.84760000   28.30745   31.58107   28.32877    0    0    0
      49       17        2  0.42380000   28.23827   30.64007   28.16768    0    0    0
      50       17        2  0.42380000   29.06943   31.67122   28.90103    0    0    0
      51       16        2  0.42380000   10.29508   12.89687   10.12668    0    0    0
      52       18        1 -0.84760000    9.53310   12.80672   28.32877    0    0    0
      53       18        2  0.42380000    9.46392   11.86572   28.16768    0    0    0
      54       18        2  0.42380000   10.29508   12.89687   28.90103    0    0    0
      55       19        1 -0.84760000    9.53310   31.58107   28.32877    0    0    0
      56       19        2  0.42380000    9.46392   30.64007   28.16768    0    0    0
      57       19        2  0.42380000   10.29508   31.67122   28.90103    0    0    0
      58       20        1 -0.84760000   28.30745   12.80672    9.55442    0    0    0
      59       20        2  0.42380000   28.23827   11.86572    9.39333    0    0    0
      60       20        2  0.42380000   29.06943   12.89687   10.12668    0    0    0
      61       21        1 -0.84760000   20.49811   22.18653   11.88008    0    0    0
      62       21        2  0.42380000   20.31840   21.28910   12.16036    0    0    0
      63       21        2  0.42380000   20.09612   22.73371   12.55478    0    0    0
      64       22        1 -0.84760000    1.72376    3.41218   30.65443    0    0    0
      65       22        2  0.42380000    1.54405    2.51475   30.93471    0    0    0
      66       22        2  0.42380000    1.32177    3.95936   31.32913    0    0    0
      67       23        1 -0.84760000    1.72376   22.18653   11.88008    0    0    0
      68       23        2  0.42380000    1.54405   21.28910   12.16036    0    0    0
      69       23        2  0.42380000    1.32177   22.73371   12.55478    0    0    0
      70       24        1 -0.84760000   20.49811    3.41218   30.65443    0    0    0
      71       24        2  0.42380000   20.31840    2.51475   30.93471    0    0    0
      72       24        2  0.42380000   20.09612    3.95936   31.32913    0    0    0
      73       25        1 -0.84760000   29.33796   24.38811   28.55566    0    0    0
      74       25        2  0.42380000   29.71445   23.51530   28.44303    0    0    0
      75       25        2  0.42380000   29.23991   24.72398   27.66471    0    0    0
      76       26        1 -0.84760000   10.56361    5.61376    9.78131    0    0    0
      77       26        2  0.42380000   10.94010    4.74095    9.66868    0    0    0
      78       26        2  0.42380000   10.46556    5.94963    8.89036    0    0    0
      79       27        1 -0.84760000   10.56361   24.38811    9.78131    0    0    0
      80       27        2  0.42380000   10.94010   23.51530    9.66868    0    0    0
      81       27        2  0.42380000   10.46556   24.72398    8.89036    0    0    0
      82       28        1 -0.84760000   10.56361   24.38811   28.55566    0    0    0
      83       28        2  0.42380000   10.94010   23.51530   28.44303    0    0    0
      84       28        2  0.42380000   10.46556   24.72398   27.66471    0    0    0
      85       29        1 -0.84760000   29.33796    5.61376   28.55566    0    0    0
      86       29        2  0.42380000   29.71445    4.74095   28.44303    0    0    0
      87       29        2  0.42380000   29.23991    5.94963   27.66471    0    0    0
      88       30        1 -0.84760000   29.97996   30.48110   24.11526    0    0    0
      89       30        2  0.42380000   29.36168   30.94604   23.55153    0    0    0
      90       30        2  0.42380000   30.49228   31.17385   24.53221    0    0    0
      91       31        1 -0.84760000   11.20561   11.70675    5.34091    0    0    0
      92       31        2  0.42380000   10.58733   12.17169    4.77718    0    0    0
      93       31        2  0.42380000   11.71793   12.39950    5.75786    0    0    0
      94       32        1 -0.84760000   29.97996   11.70675   24.11526    0    0    0
      95       32        2  0.42380000   29.36168   12.17169   23.55153    0    0    0
      96       32        2  0.42380000   30.49228   12.39950   24.53221    0    0    0
      97       33        1 -0.84760000    6.06878   11.23434   30.79362    0    0    0
      98       33        2  0.42380000    5.73572   11.86123   31.43572    0    0    0
      99       33        2  0.42380000    6.24545   11.76052   30.01378    0    0    0
     100       34        1 -0.84760000    6.06878   11.23434   12.01927    0    0    0
     101       34        2  0.42380000    5.73572   11.86123   12.66137    0    0    0
     102       34        2  0.42380000    6.24545   11.76052   11.23943    0    0    0
     103       35        1 -0.84760000    6.06878   30.00869   12.01927    0    0    0
     104       35        2  0.42380000    5.73572   30.63558   12.66137    0    0    0
     105       35        2  0.42380000    6.24545   30.53487   11.23943    0    0    0
     106       36        1 -0.84760000    6.06878   30.00869   30.79362    0    0    0
     107       36        2  0.42380000    5.73572   30.63558   31.43572    0    0    0
     108       36        2  0.42380000    6.24545   30.53487   30.01378    0    0    0
     109       37        1 -0.84760000   24.84313   11.23434   30.79362    0    0    0
     110       37        2  0.42380000   24.51007   11.86123   31.43572    0    0    0
     111       37        2  0.42380000   25.01980   11.76052   30.01378    0    0    0
     112       38        1 -0.84760000   32.50868   35.28512   29.23852    0    0    0
     113       38        2  0.42380000   32.52139   34.88135   28.37074    0    0    0
     114       38        2  0.42380000   31.95620   36.05985   29.13466    0    0    0
     115       39        1 -0.84760000   13.73433   35.28512   10.46417    0    0    0
     116       39        2  0.42380000   13.74704   34.88135    9.59639    0    0    0
     117       39        2  0.42380000   13.18185   36.05985   10.36031    0    0    0
     118       40        1 -0.84760000   13.73433   35.28512   29.23852    0    0    0
     119       40        2  0.42380000   13.74704   34.88135   28.37074    0    0    0
     120       40        2  0.42380000   13.18185   36.05985   29.13466    0    0    0
     121       41        1 -0.84760000   32.50868   16.51077   10.46417    0    0    0
     122       41        2  0.42380000   32.52139   16.10700    9.59639    0    0    0
     123       41        2  0.42380000   31.95620   17.28550   10.36031    0    0    0
     124       42        1 -0.84760000   32.50868   35.28512   10.46417    0    0    0
     125       42        2  0.42380000   32.52139   34.88135    9.59639    0    0    0
     126       42        2  0.42380000   31.95620   36.05985   10.36031    0    0    0
     127       43        1 -0.84760000   23.66377   24.93407   30.24566    0    0    0
     128       43        2  0.42380000   24.21523   25.04360   29.47099    0    0    0
     129       43        2  0.42380000   24.17812   25.30783   30.96118    0    0    0
     130       44        1 -0.84760000    4.88942    6.15972   30.24566    0    0    0
     131       44        2  0.42380000    5.44088    6.26925   29.47099    0    0    0
     132       44        2  0.42380000    5.40377    6.53348   30.96118    0    0    0
     133       45        1 -0.84760000    4.88942    6.15972   11.47131    0    0    0
     134       45        2  0.42380000    5.44088    6.26925   10.69664    0    0    0
     135       45        2  0.42380000    5.40377    6.53348   12.18683    0    0    0
     136       46        1 -0.84760000    4.88942   24.93407   11.47131    0    0    0
     137       46        2  0.42380000    5.44088   25.04360   10.69664    0    0    0
     138       46        2  0.42380000    5.40377   25.30783   12.18683    0    0    0
     139       47        1 -0.84760000    4.88942   24.93407   30.24566    0    0    0
     140       47        2  0.42380000    5.44088   25.04360   29.47099    0    0    0
     141       47        2  0.42380000    5.40377   25.30783   30.96118    0    0    0
     142       48        1 -0.84760000   23.66377    6.15972   30.24566    0    0    0
     143       48        2  0.42380000   24.21523    6.26925   29.47099    0    0    0
     144       48        2  0.42380000   24.17812    6.53348   30.96118    0    0    0
     145       49        1 -0.84760000   23.66377   24.93407   11.47131    0    0    0
     146       49        2  0.42380000   24.21523   25.04360   10.69664    0    0    0
     147       49        2  0.42380000   24.17812   25.30783   12.18683    0    0    0
     148       50        1 -0.84760000   31.55144    9.65964    2.42023    0    0    0
     149       50        2  0.42380000   31.99077    8.82188    2.27402    0    0    0
     150       50        2  0.42380000   32.26429   10.29258    2.50665    0    0    0
     151       51        1 -0.84760000   31.55144   28.43399    2.42023    0    0    0
     152       51        2  0.42380000   31.99077   27.59623    2.27402    0    0    0
     153       51        2  0.42380000   32.26429   29.06693    2.50665    0    0    0
     154       52        1 -0.84760000    6.36173   15.62383   36.06471    0    0    0
     155       52        2  0.42380000    6.33327   16.02812   35.19755    0    0    0
     156       52        2  0.42380000    6.19823   14.69486   35.90187    0    0    0
     157       53        1 -0.84760000    6.36173   34.39818   17.29036    0    0    0
     158       53        2  0.42380000    6.33327   34.80247   16.42320    0    0    0
     159       53        2  0.42380000    6.19823   33.46921   17.12752    0    0    0
     160       54        1 -0.84760000   25.13608   15.62383   36.06471    0    0    0
     161       54        2  0.42380000   25.10762   16.02812   35.19755    0    0    0
     162       54        2  0.42380000   24.97258   14.69486   35.90187    0    0    0
     163       55        1 -0.84760000   35.13316   19.68827   19.50869    0    0    0
     164       55        2  0.42380000   34.82042   19.78095   20.40859    0    0    0
     165       55        2  0.42380000   35.89441   20.26637   19.45843    0    0    0
     166       56        1 -0.84760000   16.35881   19.68827    0.73434    0    0    0
     167       56        2  0.42380000   16.04607   19.78095    1.63424    0    0    0
     168       56        2  0.42380000   17.12006   20.26637    0.68408    0    0    0
     169       57        1 -0.84760000   16.35881   19.68827   19.50869    0    0    0
     170       57        2  0.42380000   16.04607   19.78095   20.40859    0    0    0
     171       57        2  0.42380000   17.12006   20.26637   19.45843    0    0    0
     172       58        1 -0.84760000   35.13316    0.91392    0.73434    0    0    0
     173       58        2  0.42380000   34.82042    1.00660    1.63424    0    0    0
     174       58        2  0.42380000   35.89441    1.49202    0.68408    0    0    0
     175       59        1 -0.84760000   20.53467   31.92578   26.18390    0    0    0
     176       59        2  0.42380000   20.12748   32.06724   25.32926    0    0    0
     177       59        2  0.42380000   21.42597   31.64180   25.98102    0    0    0
     178       60        1 -0.84760000    1.76032   13.15143   26.18390    0    0    0
     179       60        2  0.42380000    1.35313   13.29289   25.32926    0    0    0
     180       60        2  0.42380000    2.65162   12.86745   25.98102    0    0    0
     181       61        1 -0.84760000    1.76032   13.15143    7.40955    0    0    0
     182       61        2  0.42380000    1.35313   13.29289    6.55491    0    0    0
     183       61        2  0.42380000    2.65162   12.86745    7.20667    0    0    0
     184       62        1 -0.84760000   20.53467   13.15143   26.18390    0    0    0
     185       62        2  0.42380000   20.12748   13.29289   25.32926    0    0    0
     186       62        2  0.42380000   21.42597   12.86745   25.98102    0    0    0
     187       63        1 -0.84760000   20.53467   31.92578    7.40955    0    0    0
     188       63        2  0.42380000   20.12748   32.06724    6.55491    0    0    0
     189       63        2  0.42380000   21.42597   31.64180    7.20667    0    0    0
     190       64        1 -0.84760000   13.55365   36.36050   22.51901    0    0    0
     191       64        2  0.42380000   13.39376   36.07080   23.41719    0    0    0
     192       64        2  0.42380000   13.38832   35.58452   21.98353    0    0    0
     193       65        1 -0.84760000   32.32800   17.58615    3.74466    0    0    0
     194       65        2  0.42380000   32.16811   17.29645    4.64284    0    0    0
     195       65        2  0.42380000   32.16267   16.81017    3.20918    0    0    0
     196       66        1 -0.84760000   32.32800   17.58615   22.51901    0    0    0
     197       66        2  0.42380000   32.16811   17.29645   23.41719    0    0    0
     198       66        2  0.42380000   32.16267   16.81017   21.98353    0    0    0
     199       67        1 -0.84760000   32.32800   36.36050    3.74466    0    0    0
     200       67        2  0.42380000   32.16811   36.07080    4.64284    0    0    0
     201       67        2  0.42380000   32.16267   35.58452    3.20918    0    0    0
     202       68        1 -0.84760000   30.50014   25.98568   17.40752    0    0    0
     203       68        2  0.42380000   30.82548   25.15205   17.06774    0    0    0
     204       68        2  0.42380000   31.28817   26.50853   17.55535    0    0    0
     205       69        1 -0.84760000   11.72579    7.21133   36.18187    0    0    0
     206       69        2  0.42380000   12.05113    6.37770   35.84209    0    0    0
     207       69        2  0.42380000   12.51382    7.73418   36.32970    0    0    0
     208       70        1 -0.84760000   11.72579   25.98568   17.40752    0    0    0
     209       70        2  0.42380000   12.05113   25.15205   17.06774    0    0    0
     210       70        2  0.42380000   12.51382   26.50853   17.55535    0    0    0
     211       71        1 -0.84760000   11.72579   25.98568   36.18187    0    0    0
     212       71        2  0.42380000   12.05113   25.15205   35.84209    0    0    0
     213       71        2  0.42380000   12.51382   26.50853   36.32970    0    0    0
     214       72        1 -0.84760000   30.50014    7.21133   17.40752    0    0    0
     215       72        2  0.42380000   30.82548    6.37770   17.06774    0    0    0
     216       72        2  0.42380000   31.28817    7.73418   17.55535    0    0    0
     217       73        1 -0.84760000   27.23362   20.01882    3.45502    0    0    0
     218       73        2  0.42380000   26.60904   20.01481    4.18035    0    0    0
     219       73        2  0.42380000   27.14663   19.15192    3.05862    0    0    0
     220       74        1 -0.84760000   27.23362   20.01882   22.22937    0    0    0
     221       74        2  0.42380000   26.60904   20.01481   22.95470    0    0    0
     222       74        2  0.42380000   27.14663   19.15192   21.83297    0    0    0
     223       75        1 -0.84760000    8.45927   20.01882    3.45502    0    0    0
     224       75        2  0.42380000    7.83469   20.01481    4.18035    0    0    0
     225       75        2  0.42380000    8.37228   19.15192    3.05862    0    0    0
     226       76        1 -0.84760000    8.45927    1.24447    3.45502    0    0    0
     227       76        2  0.42380000    7.83469    1.24046    4.18035    0    0    0
     228       76        2  0.42380000    8.37228    0.37757    3.05862    0    0    0
     229       77        1 -0.84760000    8.45927   20.01882   22.22937    0    0    0
     230       77        2  0.42380000    7.83469   20.01481   22.95470    0    0    0
     231       77        2  0.42380000    8.37228   19.15192   21.83297    0    0    0
     232       78        1 -0.84760000   27.23362    1.24447    3.45502    0    0    0
     233       78        2  0.42380000   26.60904    1.24046    4.18035    0    0    0
     234       78        2  0.42380000   27.14663    0.37757    3.05862    0    0    0
     235       79        1 -0.84760000   26.15533   20.94249   10.43340    0    0    0
     236       79        2  0.42380000   26.45256   21.84877   10.35260    0    0    0
     237       79        2  0.42380000   26.70388   20.45436    9.81936    0    0    0
     238       80        1 -0.84760000   26.15533   20.94249   29.20775    0    0    0
     239       80        2  0.42380000   26.45256   21.84877   29.12695    0    0    0
     240       80        2  0.42380000   26.70388   20.45436   28.59371    0    0    0
     241       81        1 -0.84760000    7.38098    2.16814   29.20775    0    0    0
     242       81        2  0.42380000    7.67821    3.07442   29.12695    0    0    0
     243       81        2  0.42380000    7.92953    1.68001   28.59371    0    0    0
     244       82        1 -0.84760000    7.38098    2.16814   10.43340    0    0    0
     245       83        1 -0.84760000    7.38098   20.94249   29.20775    0    0    0
     246       82        2  0.42380000    7.67821    3.07442   10.35260    0    0    0
     247       83        2  0.42380000    7.67821   21.84877   29.12695    0    0    0
     248       83        2  0.42380000    7.92953   20.45436   28.59371    0    0    0
     249       82        2  0.42380000    7.92953    1.68001    9.81936    0    0    0
     250       84        1 -0.84760000   26.15533    2.16814   10.43340    0    0    0
     251       84        2  0.42380000   26.45256    3.07442   10.35260    0    0    0
     252       84        2  0.42380000   26.70388    1.68001    9.81936    0    0    0
     253       85        1 -0.84760000   31.13894   25.52745    4.90163    0    0    0
     254       85        2  0.42380000   30.53983   26.25103    4.71799    0    0    0
     255       85        2  0.42380000   31.68690   25.46513    4.11927    0    0    0
     256       86        1 -0.84760000   12.36459   25.52745    4.90163    0    0    0
     257       86        2  0.42380000   11.76548   26.25103    4.71799    0    0    0
     258       86        2  0.42380000   12.91255   25.46513    4.11927    0    0    0
     259       87        1 -0.84760000   31.13894    6.75310    4.90163    0    0    0
     260       87        2  0.42380000   30.53983    7.47668    4.71799    0    0    0
     261       87        2  0.42380000   31.68690    6.69078    4.11927    0    0    0
     262       88        1 -0.84760000    2.70579   22.83104   15.12197    0    0    0
     263       88        2  0.42380000    2.31212   23.67856   15.32925    0    0    0
     264       88        2  0.42380000    2.01763   22.19367   15.31283    0    0    0
     265       89        1 -0.84760000    2.70579   22.83104   33.89632    0    0    0
     266       89        2  0.42380000    2.31212   23.67856   34.10360    0    0    0
     267       89        2  0.42380000    2.01763   22.19367   34.08718    0    0    0
     268       90        1 -0.84760000   21.48014    4.05669   15.12197    0    0    0
     269       90        2  0.42380000   21.08647    4.90421   15.32925    0    0    0
     270       90        2  0.42380000   20.79198    3.41932   15.31283    0    0    0
     271       91        1 -0.84760000   31.20102   30.99319    8.36909    0    0    0
     272       91        2  0.42380000   31.55340   30.39600    7.70923    0    0    0
     273       91        2  0.42380000   30.31725   30.66761    8.53992    0    0    0
     274       92        1 -0.84760000   31.20102   30.99319   27.14344    0    0    0
     275       92        2  0.42380000   31.55340   30.39600   26.48358    0    0    0
     276       92        2  0.42380000   30.31725   30.66761   27.31427    0    0    0
     277       93        1 -0.84760000   12.42667   12.21884   27.14344    0    0    0
     278       93        2  0.42380000   12.77905   11.62165   26.48358    0    0    0
     279       93        2  0.42380000   11.54290   11.89326   27.31427    0    0    0
     280       94        1 -0.84760000   12.42667   30.99319    8.36909    0    0    0
     281       94        2  0.42380000   12.77905   30.39600    7.70923    0    0    0
     282       94        2  0.42380000   11.54290   30.66761    8.53992    0    0    0
     283       95        1 -0.84760000   12.42667   30.99319   27.14344    0    0    0
     284       95        2  0.42380000   12.77905   30.39600   26.48358    0    0    0
     285       95        2  0.42380000   11.54290   30.66761   27.31427    0    0    0
     286       96        1 -0.84760000   12.42667   12.21884    8.36909    0    0    0
     287       96        2  0.42380000   12.77905   11.62165    7.70923    0    0    0
     288       96        2  0.42380000   11.54290   11.89326    8.53992    0    0    0
     289       97        1 -0.84760000   31.20102   12.21884   27.14344    0    0    0
     290       97        2  0.42380000   31.55340   11.62165   26.48358    0    0    0
     291       97        2  0.42380000   30.31725   11.89326   27.31427    0    0    0
     292       98        1 -0.84760000   28.89333   34.26819   12.61790    0    0    0
     293       98        2  0.42380000   29.53755   34.47413   13.29524    0    0    0
     294       98        2  0.42380000   29.25627   33.50703   12.16498    0    0    0
     295       99        1 -0.84760000   10.11898   15.49384   31.39225    0    0    0
     296       99        2  0.42380000   10.76320   15.69978   32.06959    0    0    0
     297       99        2  0.42380000   10.48192   14.73268   30.93933    0    0    0
     298      100        1 -0.84760000   10.11898   15.49384   12.61790    0    0    0
     299      100        2  0.42380000   10.76320   15.69978   13.29524    0    0    0
     300      100        2  0.42380000   10.48192   14.73268   12.16498    0    0    0
     301      101        1 -0.84760000   28.89333   15.49384   12.61790    0    0    0
     302      101        2  0.42380000   29.53755   15.69978   13.29524    0    0    0
     303      101        2  0.42380000   29.25627   14.73268   12.16498    0    0    0
     304      102        1 -0.84760000   28.89333   15.49384   31.39225    0    0    0
     305      102        2  0.42380000   29.53755   15.69978   32.06959    0    0    0
     306      102        2  0.42380000   29.25627   14.73268   30.93933    0    0    0
     307      103        1 -0.84760000   33.59374   30.47348   21.49532    0    0    0
     308      103        2  0.42380000   33.30591   30.93475   22.28311    0    0    0
     309      103        2  0.42380000   34.38895   30.01326   21.76375    0    0    0
     310      104        1 -0.84760000   14.81939   11.69913   21.49532    0    0    0
     311      104        2  0.42380000   14.53156   12.16040   22.28311    0    0    0
     312      104        2  0.42380000   15.61460   11.23891   21.76375    0    0    0
     313      105        1 -0.84760000   14.81939   30.47348    2.72097    0    0    0
     314      105        2  0.42380000   14.53156   30.93475    3.50876    0    0    0
     315      105        2  0.42380000   15.61460   30.01326    2.98940    0    0    0
     316      106        1 -0.84760000   14.81939   30.47348   21.49532    0    0    0
     317      106        2  0.42380000   14.53156   30.93475   22.28311    0    0    0
     318      106        2  0.42380000   15.61460   30.01326   21.76375    0    0    0
     319      107        1 -0.84760000   33.59374   11.69913    2.72097    0    0    0
     320      107        2  0.42380000   33.30591   12.16040    3.50876    0    0    0
     321      107        2  0.42380000   34.38895   11.23891    2.98940    0    0    0
     322      108        1 -0.84760000   19.77790   34.84846   16.30824    0    0    0
     323      108        2  0.42380000   19.88701   33.90794   16.16778    0    0    0
     324      108        2  0.42380000   19.12596   35.11394   15.65962    0    0    0
     325      109        1 -0.84760000   19.77790   34.84846   35.08259    0    0    0
     326      109        2  0.42380000   19.88701   33.90794   34.94213    0    0    0
     327      109        2  0.42380000   19.12596   35.11394   34.43397    0    0    0
     328      110        1 -0.84760000    1.00355   16.07411   35.08259    0    0    0
     329      110        2  0.42380000    1.11266   15.13359   34.94213    0    0    0
     330      110        2  0.42380000    0.35161   16.33959   34.43397    0    0    0
     331      111        1 -0.84760000    1.00355   34.84846   35.08259    0    0    0
     332      111        2  0.42380000    1.11266   33.90794   34.94213    0    0    0
     333      111        2  0.42380000    0.35161   35.11394   34.43397    0    0    0
     334      112        1 -0.84760000    1.00355   16.07411   16.30824    0    0    0
     335      113        1 -0.84760000   19.77790   16.07411   16.30824    0    0    0
     336      113        2  0.42380000   19.88701   15.13359   16.16778    0    0    0