Created by /home/xiruan/ATLAS-toolkit/scripts/createLammpsInput.pl on Wed Nov 13 00:47:41 2024

         768 atoms
         392 bonds
         196 angles

           4 atom types
           1 bond types
           1 angle types

		   0.000000  37.548700 xlo xhi
		   0.000000  37.548700 ylo yhi
		   0.000000  37.548700 zlo zhi

Masses

    1 1.5999E+01 # OW     
    2 1.0080E+00 # HW     
    3 6.9400E+00 # Li+    
    4 3.5450E+01 # Cl-    

Pair Coeffs

    1    0.15550    3.16599 # OW OW 
    2    0.00000    1.00000 # HW HW 
    3    0.33673    1.40940 # Li+ Li+ 
    4    0.01278    4.83045 # Cl- Cl- 

Bond Coeffs

    1     5530        1 # HW OW 

Angle Coeffs

    1     1000   109.47 # HW OW HW 

Atoms

       1        1        1 -0.84760000    2.51798    5.40318   22.98357    0    0    0
       2        2        1 -0.84760000   21.29233    5.40318   22.98357    0    0    0
       3        2        2  0.42380000   20.40400    5.74477   22.88156    0    0    0
       4        2        2  0.42380000   21.57644    5.20321   22.09165    0    0    0
       5        3        1 -0.84760000   21.29233   24.17753    4.20922    0    0    0
       6        3        2  0.42380000   20.40400   24.51912    4.10721    0    0    0
       7        3        2  0.42380000   21.57644   23.97756    3.31730    0    0    0
       8        4        1 -0.84760000   21.29233   24.17753   22.98357    0    0    0
       9        4        2  0.42380000   20.40400   24.51912   22.88156    0    0    0
      10        4        2  0.42380000   21.57644   23.97756   22.09165    0    0    0
      11        1        2  0.42380000    1.62965    5.74477   22.88156    0    0    0
      12        1        2  0.42380000    2.80209    5.20321   22.09165    0    0    0
      13        5        1 -0.84760000   21.29233    5.40318    4.20922    0    0    0
      14        5        2  0.42380000   20.40400    5.74477    4.10721    0    0    0
      15        5        2  0.42380000   21.57644    5.20321    3.31730    0    0    0
      16        6        1 -0.84760000    4.69411    3.98633   24.01741    0    0    0
      17        6        2  0.42380000    4.80079    4.88670   24.32428    0    0    0
      18        6        2  0.42380000    3.78335    3.93812   23.72687    0    0    0
      19        7        1 -0.84760000    4.69411   22.76068    5.24306    0    0    0
      20        7        2  0.42380000    4.80079   23.66105    5.54993    0    0    0
      21        7        2  0.42380000    3.78335   22.71247    4.95252    0    0    0
      22        8        1 -0.84760000    4.69411    3.98633    5.24306    0    0    0
      23        9        1 -0.84760000    4.69411   22.76068   24.01741    0    0    0
      24        9        2  0.42380000    4.80079   23.66105   24.32428    0    0    0
      25        9        2  0.42380000    3.78335   22.71247   23.72687    0    0    0
      26        8        2  0.42380000    4.80079    4.88670    5.54993    0    0    0
      27        8        2  0.42380000    3.78335    3.93812    4.95252    0    0    0
      28       10        1 -0.84760000   23.46846    3.98633   24.01741    0    0    0
      29       10        2  0.42380000   23.57514    4.88670   24.32428    0    0    0
      30       10        2  0.42380000   22.55770    3.93812   23.72687    0    0    0
      31       11        1 -0.84760000   23.46846   22.76068    5.24306    0    0    0
      32       11        2  0.42380000   23.57514   23.66105    5.54993    0    0    0
      33       11        2  0.42380000   22.55770   22.71247    4.95252    0    0    0
      34       12        1 -0.84760000   18.63598    5.12548   32.05286    0    0    0
      35       12        2  0.42380000   17.93120    5.51365   31.53437    0    0    0
      36       12        2  0.42380000   18.90177    5.82051   32.65495    0    0    0
      37       13        1 -0.84760000   18.63598   23.89983   13.27851    0    0    0
      38       13        2  0.42380000   17.93120   24.28800   12.76002    0    0    0
      39       13        2  0.42380000   18.90177   24.59486   13.88060    0    0    0
      40       14        1 -0.84760000   18.63598    5.12548   13.27851    0    0    0
      41       14        2  0.42380000   17.93120    5.51365   12.76002    0    0    0
      42       14        2  0.42380000   18.90177    5.82051   13.88060    0    0    0
      43       15        1 -0.84760000   37.41033   23.89983   32.05286    0    0    0
      44       15        2  0.42380000   36.70555   24.28800   31.53437    0    0    0
      45       15        2  0.42380000   37.67612   24.59486   32.65495    0    0    0
      46       16        1 -0.84760000   11.20561   11.70675    5.34091    0    0    0
      47       16        2  0.42380000   10.58733   12.17169    4.77718    0    0    0
      48       16        2  0.42380000   11.71793   12.39950    5.75786    0    0    0
      49       17        1 -0.84760000   11.20561   11.70675   24.11526    0    0    0
      50       17        2  0.42380000   10.58733   12.17169   23.55153    0    0    0
      51       17        2  0.42380000   11.71793   12.39950   24.53221    0    0    0
      52       18        1 -0.84760000   11.20561   30.48110   24.11526    0    0    0
      53       18        2  0.42380000   10.58733   30.94604   23.55153    0    0    0
      54       18        2  0.42380000   11.71793   31.17385   24.53221    0    0    0
      55       19        1 -0.84760000   33.35652    5.04884    9.48690    0    0    0
      56       19        2  0.42380000   32.65208    5.33733   10.06721    0    0    0
      57       19        2  0.42380000   33.71774    5.85886    9.12686    0    0    0
      58       20        1 -0.84760000   17.65087   23.26867   28.65217    0    0    0
      59       20        2  0.42380000   16.70336   23.30257   28.78372    0    0    0
      60       20        2  0.42380000   17.97586   24.08257   29.03711    0    0    0
      61       21        1 -0.84760000   36.42522    4.49432    9.87782    0    0    0
      62       21        2  0.42380000   35.47771    4.52822   10.00937    0    0    0
      63       21        2  0.42380000   36.75021    5.30822   10.26276    0    0    0
      64       22        1 -0.84760000    8.18282    0.79404    8.17342    0    0    0
      65       22        2  0.42380000    8.49032    0.23873    7.45697    0    0    0
      66       22        2  0.42380000    7.25289    0.92849    7.99072    0    0    0
      67       23        1 -0.84760000   26.95717    0.79404   26.94777    0    0    0
      68       23        2  0.42380000   27.26467    0.23873   26.23132    0    0    0
      69       23        2  0.42380000   26.02724    0.92849   26.76507    0    0    0
      70       24        1 -0.84760000   26.95717   19.56839    8.17342    0    0    0
      71       24        2  0.42380000   27.26467   19.01308    7.45697    0    0    0
      72       24        2  0.42380000   26.02724   19.70284    7.99072    0    0    0
      73       25        1 -0.84760000   26.95717   19.56839   26.94777    0    0    0
      74       25        2  0.42380000   27.26467   19.01308   26.23132    0    0    0
      75       25        2  0.42380000   26.02724   19.70284   26.76507    0    0    0
      76       26        1 -0.84760000   33.80322   32.00674   24.32753    0    0    0
      77       26        2  0.42380000   33.69285   31.06418   24.45248    0    0    0
      78       26        2  0.42380000   33.80004   32.36831   25.21381    0    0    0
      79       27        1 -0.84760000   15.02887   32.00674   24.32753    0    0    0
      80       27        2  0.42380000   14.91850   31.06418   24.45248    0    0    0
      81       27        2  0.42380000   15.02569   32.36831   25.21381    0    0    0
      82       28        1 -0.84760000   33.80322   13.23239   24.32753    0    0    0
      83       28        2  0.42380000   33.69285   12.28983   24.45248    0    0    0
      84       28        2  0.42380000   33.80004   13.59396   25.21381    0    0    0
      85       29        1 -0.84760000   33.80322   32.00674    5.55318    0    0    0
      86       29        2  0.42380000   33.69285   31.06418    5.67813    0    0    0
      87       29        2  0.42380000   33.80004   32.36831    6.43946    0    0    0
      88       30        1 -0.84760000   17.07908    9.81248   30.65840    0    0    0
      89       30        2  0.42380000   16.25094    9.88179   30.18342    0    0    0
      90       30        2  0.42380000   17.67413   10.39791   30.18999    0    0    0
      91       31        1 -0.84760000   17.07908    9.81248   11.88405    0    0    0
      92       31        2  0.42380000   16.25094    9.88179   11.40907    0    0    0
      93       31        2  0.42380000   17.67413   10.39791   11.41564    0    0    0
      94       32        1 -0.84760000   17.07908   28.58683   11.88405    0    0    0
      95       32        2  0.42380000   16.25094   28.65614   11.40907    0    0    0
      96       32        2  0.42380000   17.67413   29.17226   11.41564    0    0    0
      97       33        1 -0.84760000   35.85343    9.81248   30.65840    0    0    0
      98       33        2  0.42380000   35.02529    9.88179   30.18342    0    0    0
      99       33        2  0.42380000   36.44848   10.39791   30.18999    0    0    0
     100       34        1 -0.84760000   14.04328    6.59941   31.60389    0    0    0
     101       34        2  0.42380000   13.63040    7.42478   31.85789    0    0    0
     102       34        2  0.42380000   13.31088    6.01391   31.41153    0    0    0
     103       35        1 -0.84760000   14.04328   25.37376   12.82954    0    0    0
     104       35        2  0.42380000   13.63040   26.19913   13.08354    0    0    0
     105       35        2  0.42380000   13.31088   24.78826   12.63718    0    0    0
     106       36        1 -0.84760000   32.81763    6.59941   12.82954    0    0    0
     107       36        2  0.42380000   32.40475    7.42478   13.08354    0    0    0
     108       36        2  0.42380000   32.08523    6.01391   12.63718    0    0    0
     109       37        1 -0.84760000   32.81763    6.59941   31.60389    0    0    0
     110       37        2  0.42380000   32.40475    7.42478   31.85789    0    0    0
     111       37        2  0.42380000   32.08523    6.01391   31.41153    0    0    0
     112       38        1 -0.84760000   32.03061   33.86926   21.07881    0    0    0
     113       38        2  0.42380000   31.33713   33.86699   20.41904    0    0    0
     114       38        2  0.42380000   32.77290   33.44519   20.64823    0    0    0
     115       39        1 -0.84760000   13.25626   15.09491   21.07881    0    0    0
     116       39        2  0.42380000   12.56278   15.09264   20.41904    0    0    0
     117       39        2  0.42380000   13.99855   14.67084   20.64823    0    0    0
     118       40        1 -0.84760000   13.25626   15.09491    2.30446    0    0    0
     119       41        1 -0.84760000   13.25626   33.86926    2.30446    0    0    0
     120       41        2  0.42380000   12.56278   33.86699    1.64469    0    0    0
     121       41        2  0.42380000   13.99855   33.44519    1.87388    0    0    0
     122       40        2  0.42380000   12.56278   15.09264    1.64469    0    0    0
     123       40        2  0.42380000   13.99855   14.67084    1.87388    0    0    0
     124       42        1 -0.84760000   32.03061   15.09491   21.07881    0    0    0
     125       42        2  0.42380000   31.33713   15.09264   20.41904    0    0    0
     126       42        2  0.42380000   32.77290   14.67084   20.64823    0    0    0
     127       43        1 -0.84760000   24.11774   20.39775   27.34879    0    0    0
     128       43        2  0.42380000   23.67455   21.17871   27.01724    0    0    0
     129       43        2  0.42380000   24.67624   20.72074   28.05588    0    0    0
     130       44        1 -0.84760000    5.34339    1.62340   27.34879    0    0    0
     131       44        2  0.42380000    4.90020    2.40436   27.01724    0    0    0
     132       44        2  0.42380000    5.90189    1.94639   28.05588    0    0    0
     133       45        1 -0.84760000    5.34339   20.39775    8.57444    0    0    0
     134       45        2  0.42380000    4.90020   21.17871    8.24289    0    0    0
     135       45        2  0.42380000    5.90189   20.72074    9.28153    0    0    0
     136       46        1 -0.84760000    5.34339    1.62340    8.57444    0    0    0
     137       46        2  0.42380000    4.90020    2.40436    8.24289    0    0    0
     138       46        2  0.42380000    5.90189    1.94639    9.28153    0    0    0
     139       47        1 -0.84760000   24.11774    1.62340    8.57444    0    0    0
     140       47        2  0.42380000   23.67455    2.40436    8.24289    0    0    0
     141       47        2  0.42380000   24.67624    1.94639    9.28153    0    0    0
     142       48        1 -0.84760000   24.11774    1.62340   27.34879    0    0    0
     143       48        2  0.42380000   23.67455    2.40436   27.01724    0    0    0
     144       48        2  0.42380000   24.67624    1.94639   28.05588    0    0    0
     145       49        1 -0.84760000   24.11774   20.39775    8.57444    0    0    0
     146       49        2  0.42380000   23.67455   21.17871    8.24289    0    0    0
     147       49        2  0.42380000   24.67624   20.72074    9.28153    0    0    0
     148       50        1 -0.84760000   33.40517   24.48550   34.08199    0    0    0
     149       50        2  0.42380000   32.55453   24.18608   34.40289    0    0    0
     150       50        2  0.42380000   33.24535   24.72970   33.17037    0    0    0
     151       51        1 -0.84760000   14.63082    5.71115   34.08199    0    0    0
     152       51        2  0.42380000   13.78018    5.41173   34.40289    0    0    0
     153       51        2  0.42380000   14.47100    5.95535   33.17037    0    0    0
     154       52        1 -0.84760000   14.63082   24.48550   15.30764    0    0    0
     155       52        2  0.42380000   13.78018   24.18608   15.62854    0    0    0
     156       52        2  0.42380000   14.47100   24.72970   14.39602    0    0    0
     157       53        1 -0.84760000   14.63082    5.71115   15.30764    0    0    0
     158       53        2  0.42380000   13.78018    5.41173   15.62854    0    0    0
     159       53        2  0.42380000   14.47100    5.95535   14.39602    0    0    0
     160       54        1 -0.84760000   14.63082   24.48550   34.08199    0    0    0
     161       54        2  0.42380000   13.78018   24.18608   34.40289    0    0    0
     162       54        2  0.42380000   14.47100   24.72970   33.17037    0    0    0
     163       55        1 -0.84760000   33.40517    5.71115   15.30764    0    0    0
     164       55        2  0.42380000   32.55453    5.41173   15.62854    0    0    0
     165       55        2  0.42380000   33.24535    5.95535   14.39602    0    0    0
     166       56        1 -0.84760000   33.40517    5.71115   34.08199    0    0    0
     167       56        2  0.42380000   32.55453    5.41173   34.40289    0    0    0
     168       56        2  0.42380000   33.24535    5.95535   33.17037    0    0    0
     169       57        1 -0.84760000    7.38098    2.16814   29.20775    0    0    0
     170       57        2  0.42380000    7.67821    3.07442   29.12695    0    0    0
     171       57        2  0.42380000    7.92953    1.68001   28.59371    0    0    0
     172       58        1 -0.84760000    7.38098   20.94249   10.43340    0    0    0
     173       58        2  0.42380000    7.67821   21.84877   10.35260    0    0    0
     174       58        2  0.42380000    7.92953   20.45436    9.81936    0    0    0
     175       59        1 -0.84760000   26.15533    2.16814   10.43340    0    0    0
     176       59        2  0.42380000   26.45256    3.07442   10.35260    0    0    0
     177       59        2  0.42380000   26.70388    1.68001    9.81936    0    0    0
     178       60        1 -0.84760000   26.15533   20.94249   10.43340    0    0    0
     179       60        2  0.42380000   26.45256   21.84877   10.35260    0    0    0
     180       60        2  0.42380000   26.70388   20.45436    9.81936    0    0    0
     181       61        1 -0.84760000    7.57473    7.64532   35.74294    0    0    0
     182       61        2  0.42380000    7.47909    6.70479   35.59298    0    0    0
     183       61        2  0.42380000    8.41793    7.86683   35.34775    0    0    0
     184       62        1 -0.84760000    7.57473    7.64532   16.96859    0    0    0
     185       62        2  0.42380000    7.47909    6.70479   16.81863    0    0    0
     186       62        2  0.42380000    8.41793    7.86683   16.57340    0    0    0
     187       63        1 -0.84760000    7.57473   26.41967   35.74294    0    0    0
     188       63        2  0.42380000    7.47909   25.47914   35.59298    0    0    0
     189       63        2  0.42380000    8.41793   26.64118   35.34775    0    0    0
     190       64        1 -0.84760000   26.34908    7.64532   16.96859    0    0    0
     191       64        2  0.42380000   26.25344    6.70479   16.81863    0    0    0
     192       64        2  0.42380000   27.19228    7.86683   16.57340    0    0    0
     193       65        1 -0.84760000   26.34908   26.41967   16.96859    0    0    0
     194       65        2  0.42380000   26.25344   25.47914   16.81863    0    0    0
     195       65        2  0.42380000   27.19228   26.64118   16.57340    0    0    0
     196       66        1 -0.84760000    8.05634    5.65665   21.19731    0    0    0
     197       66        2  0.42380000    8.17762    5.61530   22.14589    0    0    0
     198       66        2  0.42380000    7.67119    6.51907   21.04198    0    0    0
     199       67        1 -0.84760000   26.83069    5.65665    2.42296    0    0    0
     200       67        2  0.42380000   26.95197    5.61530    3.37154    0    0    0
     201       67        2  0.42380000   26.44554    6.51907    2.26763    0    0    0
     202       68        1 -0.84760000   26.83069   24.43100    2.42296    0    0    0
     203       68        2  0.42380000   26.95197   24.38965    3.37154    0    0    0
     204       68        2  0.42380000   26.44554   25.29342    2.26763    0    0    0
     205       69        1 -0.84760000   19.93352   22.23434   26.08252    0    0    0
     206       69        2  0.42380000   19.64821   21.86991   26.92038    0    0    0
     207       69        2  0.42380000   19.87141   21.50239   25.46884    0    0    0
     208       70        1 -0.84760000    1.15917   22.23434    7.30817    0    0    0
     209       70        2  0.42380000    0.87386   21.86991    8.14603    0    0    0
     210       70        2  0.42380000    1.09706   21.50239    6.69449    0    0    0
     211       71        1 -0.84760000    1.15917    3.45999    7.30817    0    0    0
     212       71        2  0.42380000    0.87386    3.09556    8.14603    0    0    0
     213       71        2  0.42380000    1.09706    2.72804    6.69449    0    0    0
     214       72        1 -0.84760000   19.93352    3.45999    7.30817    0    0    0
     215       72        2  0.42380000   19.64821    3.09556    8.14603    0    0    0
     216       72        2  0.42380000   19.87141    2.72804    6.69449    0    0    0
     217       73        1 -0.84760000   20.91578   27.37111   33.41873    0    0    0
     218       73        2  0.42380000   20.55728   28.03650   34.00607    0    0    0
     219       73        2  0.42380000   20.62124   26.53947   33.78999    0    0    0
     220       74        1 -0.84760000    2.14143   27.37111   14.64438    0    0    0
     221       74        2  0.42380000    1.78293   28.03650   15.23172    0    0    0
     222       74        2  0.42380000    1.84689   26.53947   15.01564    0    0    0
     223       75        1 -0.84760000    2.14143   27.37111   33.41873    0    0    0
     224       75        2  0.42380000    1.78293   28.03650   34.00607    0    0    0
     225       75        2  0.42380000    1.84689   26.53947   33.78999    0    0    0
     226       76        1 -0.84760000    2.14143    8.59676   14.64438    0    0    0
     227       76        2  0.42380000    1.78293    9.26215   15.23172    0    0    0
     228       76        2  0.42380000    1.84689    7.76512   15.01564    0    0    0
     229       77        1 -0.84760000   20.91578    8.59676   14.64438    0    0    0
     230       77        2  0.42380000   20.55728    9.26215   15.23172    0    0    0
     231       77        2  0.42380000   20.62124    7.76512   15.01564    0    0    0
     232       78        1 -0.84760000   20.91578    8.59676   33.41873    0    0    0
     233       78        2  0.42380000   20.55728    9.26215   34.00607    0    0    0
     234       78        2  0.42380000   20.62124    7.76512   33.78999    0    0    0
     235       79        1 -0.84760000   16.84802   14.89029   23.29627    0    0    0
     236       79        2  0.42380000   16.20564   14.23586   23.57065    0    0    0
     237       79        2  0.42380000   16.46109   15.29580   22.52034    0    0    0
     238       80        1 -0.84760000   16.84802   33.66464    4.52192    0    0    0
     239       80        2  0.42380000   16.20564   33.01021    4.79630    0    0    0
     240       80        2  0.42380000   16.46109   34.07015    3.74599    0    0    0
     241       81        1 -0.84760000   35.62237   14.89029   23.29627    0    0    0
     242       81        2  0.42380000   34.97999   14.23586   23.57065    0    0    0
     243       81        2  0.42380000   35.23544   15.29580   22.52034    0    0    0
     244       82        1 -0.84760000   12.42667   12.21884   27.14344    0    0    0
     245       82        2  0.42380000   12.77905   11.62165   26.48358    0    0    0
     246       82        2  0.42380000   11.54290   11.89326   27.31427    0    0    0
     247       83        1 -0.84760000   12.42667   30.99319    8.36909    0    0    0
     248       83        2  0.42380000   12.77905   30.39600    7.70923    0    0    0
     249       83        2  0.42380000   11.54290   30.66761    8.53992    0    0    0
     250       84        1 -0.84760000   31.20102   12.21884    8.36909    0    0    0
     251       84        2  0.42380000   31.55340   11.62165    7.70923    0    0    0
     252       84        2  0.42380000   30.31725   11.89326    8.53992    0    0    0
     253       85        1 -0.84760000   19.42659   27.37024   20.04219    0    0    0
     254       85        2  0.42380000   20.29607   27.65272   20.32578    0    0    0
     255       85        2  0.42380000   18.93562   28.18383   19.92707    0    0    0
     256       86        1 -0.84760000    0.65224   27.37024   20.04219    0    0    0
     257       86        2  0.42380000    1.52172   27.65272   20.32578    0    0    0
     258       86        2  0.42380000    0.16127   28.18383   19.92707    0    0    0
     259       87        1 -0.84760000    0.65224    8.59589    1.26784    0    0    0
     260       87        2  0.42380000    1.52172    8.87837    1.55143    0    0    0
     261       88        1 -0.84760000   19.42659    8.59589    1.26784    0    0    0
     262       88        2  0.42380000   20.29607    8.87837    1.55143    0    0    0
     263       88        2  0.42380000   18.93562    9.40948    1.15272    0    0    0
     264       87        2  0.42380000    0.16127    9.40948    1.15272    0    0    0
     265       89        1 -0.84760000   19.42659   27.37024    1.26784    0    0    0
     266       89        2  0.42380000   20.29607   27.65272    1.55143    0    0    0
     267       89        2  0.42380000   18.93562   28.18383    1.15272    0    0    0
     268       90        1 -0.84760000   26.59007    9.98321   24.16302    0    0    0
     269       90        2  0.42380000   27.04635   10.79373   24.38904    0    0    0
     270       90        2  0.42380000   26.23889    9.66552   24.99487    0    0    0
     271       91        1 -0.84760000   26.59007   28.75756    5.38867    0    0    0
     272       91        2  0.42380000   27.04635   29.56808    5.61469    0    0    0
     273       91        2  0.42380000   26.23889   28.43987    6.22052    0    0    0
     274       92        1 -0.84760000   19.79371   36.58298   20.60835    0    0    0
     275       92        2  0.42380000   20.15348   37.18191   19.95408    0    0    0
     276       92        2  0.42380000   19.65295   37.12897   21.38186    0    0    0
     277       93        1 -0.84760000    1.01936   17.80863    1.83400    0    0    0
     278       93        2  0.42380000    1.37913   18.40756    1.17973    0    0    0
     279       93        2  0.42380000    0.87860   18.35462    2.60751    0    0    0
     280       94        1 -0.84760000   19.77790   34.84846   35.08259    0    0    0
     281       94        2  0.42380000   19.88701   33.90794   34.94213    0    0    0
     282       94        2  0.42380000   19.12596   35.11394   34.43397    0    0    0
     283       95        1 -0.84760000    1.00355   16.07411   35.08259    0    0    0
     284       95        2  0.42380000    1.11266   15.13359   34.94213    0    0    0
     285       95        2  0.42380000    0.35161   16.33959   34.43397    0    0    0
     286       96        1 -0.84760000    1.00355   34.84846   16.30824    0    0    0
     287       96        2  0.42380000    1.11266   33.90794   16.16778    0    0    0
     288       96        2  0.42380000    0.35161   35.11394   15.65962    0    0    0
     289       97        1 -0.84760000    1.00355   34.84846   35.08259    0    0    0
     290       97        2  0.42380000    1.11266   33.90794   34.94213    0    0    0
     291       97        2  0.42380000    0.35161   35.11394   34.43397    0    0    0
     292       98        1 -0.84760000   19.77790   16.07411   16.30824    0    0    0
     293       98        2  0.42380000   19.88701   15.13359   16.16778    0    0    0
     294       98        2  0.42380000   19.12596   16.33959   15.65962    0    0    0
     295       99        1 -0.84760000    1.00355   16.07411   16.30824    0    0    0
     296       99        2  0.42380000    1.11266   15.13359   16.16778    0    0    0
     297       99        2  0.42380000    0.35161   16.33959   15.65962    0    0    0
     298      100        1 -0.84760000   19.77790   34.84846   16.30824    0    0    0
     299      100        2  0.42380000   19.88701   33.90794   16.16778    0    0    0
     300      100        2  0.42380000   19.12596   35.11394   15.65962    0    0    0
     301      101        1 -0.84760000    8.99481   33.12005   17.70806    0    0    0
     302      101        2  0.42380000    8.67450   32.40098   18.25263    0    0    0
     303      101        2  0.42380000    8.32064   33.79556   17.78166    0    0    0
     304      102        1 -0.84760000    8.99481   33.12005   36.48241    0    0    0
     305      102        2  0.42380000    8.67450   32.40098   37.02698    0    0    0
     306      102        2  0.42380000    8.32064   33.79556   36.55601    0    0    0
     307      103        1 -0.84760000   27.76916   14.34570   17.70806    0    0    0
     308      103        2  0.42380000   27.44885   13.62663   18.25263    0    0    0
     309      103        2  0.42380000   27.09499   15.02121   17.78166    0    0    0
     310      104        1 -0.84760000    8.99481   14.34570   17.70806    0    0    0
     311      104        2  0.42380000    8.67450   13.62663   18.25263    0    0    0
     312      104        2  0.42380000    8.32064   15.02121   17.78166    0    0    0
     313      105        1 -0.84760000   27.76916   14.34570   36.48241    0    0    0
     314      105        2  0.42380000   27.44885   13.62663   37.02698    0    0    0
     315      105        2  0.42380000   27.09499   15.02121   36.55601    0    0    0
     316      106        1 -0.84760000   27.76916   33.12005   17.70806    0    0    0
     317      106        2  0.42380000   27.44885   32.40098   18.25263    0    0    0
     318      106        2  0.42380000   27.09499   33.79556   17.78166    0    0    0
     319      107        1 -0.84760000   25.81058   33.96610   21.42572    0    0    0
     320      107        2  0.42380000   25.80159   34.69907   20.81017    0    0    0
     321      107        2  0.42380000   24.89041   33.71925   21.51842    0    0    0
     322      108        1 -0.84760000    7.03623   15.19175   21.42572    0    0    0
     323      108        2  0.42380000    7.02724   15.92472   20.81017    0    0    0
     324      108        2  0.42380000    6.11606   14.94490   21.51842    0    0    0
     325      109        1 -0.84760000    7.03623   33.96610    2.65137    0    0    0
     326      109        2  0.42380000    7.02724   34.69907    2.03582    0    0    0
     327      109        2  0.42380000    6.11606   33.71925    2.74407    0    0    0
     328      110        1 -0.84760000    7.03623   33.96610   21.42572    0    0    0
     329      110        2  0.42380000    7.02724   34.69907   20.81017    0    0    0
     330      110        2  0.42380000    6.11606   33.71925   21.51842    0    0    0
     331      111        1 -0.84760000   14.66925   27.46674   26.35886    0    0    0
     332      111        2  0.42380000   13.72827   27.48176   26.53363    0    0    0
     333      111        2  0.42380000   14.98366   26.68034   26.80489    0    0    0
     334      112        1 -0.84760000   33.44360    8.69239    7.58451    0    0    0
     335      112        2  0.42380000   32.50262    8.70741    7.75928    0    0    0
     336      112        2  0.42380000   33.75801    7.90599    8.03054    0    0    0