Created by /home/xiruan/ATLAS-toolkit/scripts/createLammpsInput.pl on Wed Nov 13 00:38:14 2024

        1008 atoms
         552 bonds
         276 angles

           4 atom types
           1 bond types
           1 angle types

		   0.000000  37.548700 xlo xhi
		   0.000000  37.548700 ylo yhi
		   0.000000  37.548700 zlo zhi

Masses

    1 1.5999E+01 # OW     
    2 1.0080E+00 # HW     
    3 6.9400E+00 # Li+    
    4 3.5450E+01 # Cl-    

Pair Coeffs

    1    0.15550    3.16599 # OW OW 
    2    0.00000    1.00000 # HW HW 
    3    0.33673    1.40940 # Li+ Li+ 
    4    0.01278    4.83045 # Cl- Cl- 

Bond Coeffs

    1     5530        1 # HW OW 

Angle Coeffs

    1     1000   109.47 # HW OW HW 

Atoms

       1        1        1 -0.84760000    4.08891   14.47700   10.62078    0    0    0
       2        2        1 -0.84760000    4.08891   33.25135   29.39513    0    0    0
       3        2        2  0.42380000    4.39171   32.36112   29.21615    0    0    0
       4        2        2  0.42380000    4.83327   33.80837   29.16736    0    0    0
       5        3        1 -0.84760000   22.86326   14.47700   10.62078    0    0    0
       6        3        2  0.42380000   23.16606   13.58677   10.44180    0    0    0
       7        3        2  0.42380000   23.60762   15.03402   10.39301    0    0    0
       8        4        1 -0.84760000   22.86326   14.47700   29.39513    0    0    0
       9        4        2  0.42380000   23.16606   13.58677   29.21615    0    0    0
      10        4        2  0.42380000   23.60762   15.03402   29.16736    0    0    0
      11        5        1 -0.84760000    4.08891   14.47700   29.39513    0    0    0
      12        5        2  0.42380000    4.39171   13.58677   29.21615    0    0    0
      13        5        2  0.42380000    4.83327   15.03402   29.16736    0    0    0
      14        1        2  0.42380000    4.39171   13.58677   10.44180    0    0    0
      15        1        2  0.42380000    4.83327   15.03402   10.39301    0    0    0
      16        6        1 -0.84760000   29.33796   24.38811    9.78131    0    0    0
      17        6        2  0.42380000   29.71445   23.51530    9.66868    0    0    0
      18        6        2  0.42380000   29.23991   24.72398    8.89036    0    0    0
      19        7        1 -0.84760000   10.56361   24.38811    9.78131    0    0    0
      20        7        2  0.42380000   10.94010   23.51530    9.66868    0    0    0
      21        7        2  0.42380000   10.46556   24.72398    8.89036    0    0    0
      22        8        1 -0.84760000   23.59285   20.36917   32.61627    0    0    0
      23        8        2  0.42380000   23.59469   20.88641   31.81086    0    0    0
      24        8        2  0.42380000   22.76328   19.89219   32.59326    0    0    0
      25        9        1 -0.84760000    4.81850    1.59482   32.61627    0    0    0
      26        9        2  0.42380000    4.82034    2.11206   31.81086    0    0    0
      27        9        2  0.42380000    3.98893    1.11784   32.59326    0    0    0
      28       10        1 -0.84760000   23.59285    1.59482   13.84192    0    0    0
      29       10        2  0.42380000   23.59469    2.11206   13.03651    0    0    0
      30       10        2  0.42380000   22.76328    1.11784   13.81891    0    0    0
      31       11        1 -0.84760000   24.84313   30.00869   12.01927    0    0    0
      32       11        2  0.42380000   24.51007   30.63558   12.66137    0    0    0
      33       11        2  0.42380000   25.01980   30.53487   11.23943    0    0    0
      34       12        1 -0.84760000    6.06878   11.23434   30.79362    0    0    0
      35       12        2  0.42380000    5.73572   11.86123   31.43572    0    0    0
      36       12        2  0.42380000    6.24545   11.76052   30.01378    0    0    0
      37       13        1 -0.84760000    6.06878   30.00869   12.01927    0    0    0
      38       13        2  0.42380000    5.73572   30.63558   12.66137    0    0    0
      39       13        2  0.42380000    6.24545   30.53487   11.23943    0    0    0
      40       14        1 -0.84760000   24.84313   11.23434   12.01927    0    0    0
      41       14        2  0.42380000   24.51007   11.86123   12.66137    0    0    0
      42       14        2  0.42380000   25.01980   11.76052   11.23943    0    0    0
      43       15        1 -0.84760000   24.84313   11.23434   30.79362    0    0    0
      44       15        2  0.42380000   24.51007   11.86123   31.43572    0    0    0
      45       15        2  0.42380000   25.01980   11.76052   30.01378    0    0    0
      46       16        1 -0.84760000    8.18282    0.79404   26.94777    0    0    0
      47       16        2  0.42380000    8.49032    0.23873   26.23132    0    0    0
      48       16        2  0.42380000    7.25289    0.92849   26.76507    0    0    0
      49       17        1 -0.84760000    8.18282   19.56839    8.17342    0    0    0
      50       17        2  0.42380000    8.49032   19.01308    7.45697    0    0    0
      51       17        2  0.42380000    7.25289   19.70284    7.99072    0    0    0
      52       18        1 -0.84760000    8.18282   19.56839   26.94777    0    0    0
      53       18        2  0.42380000    8.49032   19.01308   26.23132    0    0    0
      54       18        2  0.42380000    7.25289   19.70284   26.76507    0    0    0
      55       19        1 -0.84760000   26.95717    0.79404    8.17342    0    0    0
      56       19        2  0.42380000   27.26467    0.23873    7.45697    0    0    0
      57       19        2  0.42380000   26.02724    0.92849    7.99072    0    0    0
      58       20        1 -0.84760000   26.95717    0.79404   26.94777    0    0    0
      59       20        2  0.42380000   27.26467    0.23873   26.23132    0    0    0
      60       20        2  0.42380000   26.02724    0.92849   26.76507    0    0    0
      61       21        1 -0.84760000   14.60062   29.19530    5.41296    0    0    0
      62       21        2  0.42380000   13.98187   28.85726    4.76559    0    0    0
      63       21        2  0.42380000   14.58307   28.55128    6.12088    0    0    0
      64       22        1 -0.84760000   14.60062   10.42095    5.41296    0    0    0
      65       22        2  0.42380000   13.98187   10.08291    4.76559    0    0    0
      66       22        2  0.42380000   14.58307    9.77693    6.12088    0    0    0
      67       23        1 -0.84760000   14.60062   10.42095   24.18731    0    0    0
      68       23        2  0.42380000   13.98187   10.08291   23.53994    0    0    0
      69       23        2  0.42380000   14.58307    9.77693   24.89523    0    0    0
      70       24        1 -0.84760000   29.66098   14.59924    6.38836    0    0    0
      71       24        2  0.42380000   30.10057   15.34168    5.97390    0    0    0
      72       24        2  0.42380000   29.59967   14.84190    7.31225    0    0    0
      73       25        1 -0.84760000   29.66098   14.59924   25.16271    0    0    0
      74       25        2  0.42380000   30.10057   15.34168   24.74825    0    0    0
      75       25        2  0.42380000   29.59967   14.84190   26.08660    0    0    0
      76       26        1 -0.84760000    6.36173   15.62383   17.29036    0    0    0
      77       26        2  0.42380000    6.33327   16.02812   16.42320    0    0    0
      78       26        2  0.42380000    6.19823   14.69486   17.12752    0    0    0
      79       27        1 -0.84760000    6.36173   34.39818   17.29036    0    0    0
      80       27        2  0.42380000    6.33327   34.80247   16.42320    0    0    0
      81       27        2  0.42380000    6.19823   33.46921   17.12752    0    0    0
      82       28        1 -0.84760000   25.13608   15.62383   17.29036    0    0    0
      83       28        2  0.42380000   25.10762   16.02812   16.42320    0    0    0
      84       28        2  0.42380000   24.97258   14.69486   17.12752    0    0    0
      85       29        1 -0.84760000   25.13608   15.62383   36.06471    0    0    0
      86       29        2  0.42380000   25.10762   16.02812   35.19755    0    0    0
      87       29        2  0.42380000   24.97258   14.69486   35.90187    0    0    0
      88       30        1 -0.84760000   20.53467   31.92578    7.40955    0    0    0
      89       30        2  0.42380000   20.12748   32.06724    6.55491    0    0    0
      90       30        2  0.42380000   21.42597   31.64180    7.20667    0    0    0
      91       31        1 -0.84760000   20.53467   31.92578   26.18390    0    0    0
      92       31        2  0.42380000   20.12748   32.06724   25.32926    0    0    0
      93       31        2  0.42380000   21.42597   31.64180   25.98102    0    0    0
      94       32        1 -0.84760000    1.76032   13.15143    7.40955    0    0    0
      95       32        2  0.42380000    1.35313   13.29289    6.55491    0    0    0
      96       32        2  0.42380000    2.65162   12.86745    7.20667    0    0    0
      97       33        1 -0.84760000    1.76032   31.92578    7.40955    0    0    0
      98       33        2  0.42380000    1.35313   32.06724    6.55491    0    0    0
      99       33        2  0.42380000    2.65162   31.64180    7.20667    0    0    0
     100       34        1 -0.84760000    1.76032   31.92578   26.18390    0    0    0
     101       34        2  0.42380000    1.35313   32.06724   25.32926    0    0    0
     102       34        2  0.42380000    2.65162   31.64180   25.98102    0    0    0
     103       35        1 -0.84760000   20.53467   13.15143    7.40955    0    0    0
     104       35        2  0.42380000   20.12748   13.29289    6.55491    0    0    0
     105       35        2  0.42380000   21.42597   12.86745    7.20667    0    0    0
     106       36        1 -0.84760000   20.53467   13.15143   26.18390    0    0    0
     107       36        2  0.42380000   20.12748   13.29289   25.32926    0    0    0
     108       36        2  0.42380000   21.42597   12.86745   25.98102    0    0    0
     109       37        1 -0.84760000   36.49089   32.37217   15.74678    0    0    0
     110       37        2  0.42380000   36.61719   32.13336   14.82850    0    0    0
     111       37        2  0.42380000   36.53302   31.54062   16.21899    0    0    0
     112       38        1 -0.84760000   17.71654   13.59782   34.52113    0    0    0
     113       38        2  0.42380000   17.84284   13.35901   33.60285    0    0    0
     114       38        2  0.42380000   17.75867   12.76627   34.99334    0    0    0
     115       39        1 -0.84760000   17.71654   32.37217   34.52113    0    0    0
     116       39        2  0.42380000   17.84284   32.13336   33.60285    0    0    0
     117       39        2  0.42380000   17.75867   31.54062   34.99334    0    0    0
     118       40        1 -0.84760000   36.49089   13.59782   15.74678    0    0    0
     119       40        2  0.42380000   36.61719   13.35901   14.82850    0    0    0
     120       40        2  0.42380000   36.53302   12.76627   16.21899    0    0    0
     121       41        1 -0.84760000   36.49089   13.59782   34.52113    0    0    0
     122       41        2  0.42380000   36.61719   13.35901   33.60285    0    0    0
     123       41        2  0.42380000   36.53302   12.76627   34.99334    0    0    0
     124       42        1 -0.84760000   28.40472   23.26461   14.17797    0    0    0
     125       42        2  0.42380000   27.94266   23.47291   14.98996    0    0    0
     126       42        2  0.42380000   28.00253   22.45054   13.87504    0    0    0
     127       43        1 -0.84760000   28.40472   23.26461   32.95232    0    0    0
     128       43        2  0.42380000   27.94266   23.47291   33.76431    0    0    0
     129       43        2  0.42380000   28.00253   22.45054   32.64939    0    0    0
     130       44        1 -0.84760000    9.63037    4.49026   32.95232    0    0    0
     131       44        2  0.42380000    9.16831    4.69856   33.76431    0    0    0
     132       44        2  0.42380000    9.22818    3.67619   32.64939    0    0    0
     133       45        1 -0.84760000    9.63037   23.26461   32.95232    0    0    0
     134       45        2  0.42380000    9.16831   23.47291   33.76431    0    0    0
     135       45        2  0.42380000    9.22818   22.45054   32.64939    0    0    0
     136       46        1 -0.84760000   28.40472    4.49026   32.95232    0    0    0
     137       46        2  0.42380000   27.94266    4.69856   33.76431    0    0    0
     138       46        2  0.42380000   28.00253    3.67619   32.64939    0    0    0
     139       47        1 -0.84760000   26.15533   20.94249   10.43340    0    0    0
     140       47        2  0.42380000   26.45256   21.84877   10.35260    0    0    0
     141       47        2  0.42380000   26.70388   20.45436    9.81936    0    0    0
     142       48        1 -0.84760000   26.15533   20.94249   29.20775    0    0    0
     143       48        2  0.42380000   26.45256   21.84877   29.12695    0    0    0
     144       48        2  0.42380000   26.70388   20.45436   28.59371    0    0    0
     145       49        1 -0.84760000    7.38098    2.16814   29.20775    0    0    0
     146       49        2  0.42380000    7.67821    3.07442   29.12695    0    0    0
     147       49        2  0.42380000    7.92953    1.68001   28.59371    0    0    0
     148       50        1 -0.84760000    7.38098    2.16814   10.43340    0    0    0
     149       50        2  0.42380000    7.67821    3.07442   10.35260    0    0    0
     150       50        2  0.42380000    7.92953    1.68001    9.81936    0    0    0
     151       51        1 -0.84760000    7.38098   20.94249   29.20775    0    0    0
     152       51        2  0.42380000    7.67821   21.84877   29.12695    0    0    0
     153       51        2  0.42380000    7.92953   20.45436   28.59371    0    0    0
     154       52        1 -0.84760000   28.05464   22.91453   18.19164    0    0    0
     155       52        2  0.42380000   27.36447   22.72175   18.82625    0    0    0
     156       52        2  0.42380000   28.79787   23.19800   18.72407    0    0    0
     157       53        1 -0.84760000   28.05464   22.91453   36.96599    0    0    0
     158       53        2  0.42380000   27.36447   22.72175   37.60060    0    0    0
     159       53        2  0.42380000   28.79787   23.19800   37.49842    0    0    0
     160       54        1 -0.84760000    9.28029    4.14018   36.96599    0    0    0
     161       54        2  0.42380000    8.59012    3.94740   37.60060    0    0    0
     162       54        2  0.42380000   10.02352    4.42365   37.49842    0    0    0
     163       55        1 -0.84760000    9.28029    4.14018   18.19164    0    0    0
     164       56        1 -0.84760000    9.28029   22.91453   18.19164    0    0    0
     165       55        2  0.42380000    8.59012    3.94740   18.82625    0    0    0
     166       56        2  0.42380000    8.59012   22.72175   18.82625    0    0    0
     167       56        2  0.42380000   10.02352   23.19800   18.72407    0    0    0
     168       55        2  0.42380000   10.02352    4.42365   18.72407    0    0    0
     169       57        1 -0.84760000    9.28029   22.91453   36.96599    0    0    0
     170       57        2  0.42380000    8.59012   22.72175   37.60060    0    0    0
     171       57        2  0.42380000   10.02352   23.19800   37.49842    0    0    0
     172       58        1 -0.84760000   28.05464    4.14018   18.19164    0    0    0
     173       58        2  0.42380000   27.36447    3.94740   18.82625    0    0    0
     174       58        2  0.42380000   28.79787    4.42365   18.72407    0    0    0
     175       59        1 -0.84760000   28.05464    4.14018   36.96599    0    0    0
     176       59        2  0.42380000   27.36447    3.94740   37.60060    0    0    0
     177       59        2  0.42380000   28.79787    4.42365   37.49842    0    0    0
     178       60        1 -0.84760000   26.76868   23.42980    9.43228    0    0    0
     179       60        2  0.42380000   26.77228   22.98879    8.58274    0    0    0
     180       60        2  0.42380000   27.66379   23.75153    9.53947    0    0    0
     181       61        1 -0.84760000   26.76868   23.42980   28.20663    0    0    0
     182       61        2  0.42380000   26.77228   22.98879   27.35709    0    0    0
     183       61        2  0.42380000   27.66379   23.75153   28.31382    0    0    0
     184       62        1 -0.84760000    7.99433    4.65545   28.20663    0    0    0
     185       62        2  0.42380000    7.99793    4.21444   27.35709    0    0    0
     186       62        2  0.42380000    8.88944    4.97718   28.31382    0    0    0
     187       63        1 -0.84760000    7.99433   23.42980    9.43228    0    0    0
     188       63        2  0.42380000    7.99793   22.98879    8.58274    0    0    0
     189       63        2  0.42380000    8.88944   23.75153    9.53947    0    0    0
     190       64        1 -0.84760000    7.99433    4.65545    9.43228    0    0    0
     191       64        2  0.42380000    7.99793    4.21444    8.58274    0    0    0
     192       64        2  0.42380000    8.88944    4.97718    9.53947    0    0    0
     193       65        1 -0.84760000    7.99433   23.42980   28.20663    0    0    0
     194       65        2  0.42380000    7.99793   22.98879   27.35709    0    0    0
     195       65        2  0.42380000    8.88944   23.75153   28.31382    0    0    0
     196       66        1 -0.84760000   26.76868    4.65545    9.43228    0    0    0
     197       66        2  0.42380000   26.77228    4.21444    8.58274    0    0    0
     198       66        2  0.42380000   27.66379    4.97718    9.53947    0    0    0
     199       67        1 -0.84760000    8.05634   24.43100    2.42296    0    0    0
     200       67        2  0.42380000    8.17762   24.38965    3.37154    0    0    0
     201       67        2  0.42380000    7.67119   25.29342    2.26763    0    0    0
     202       68        1 -0.84760000    8.05634    5.65665    2.42296    0    0    0
     203       68        2  0.42380000    8.17762    5.61530    3.37154    0    0    0
     204       68        2  0.42380000    7.67119    6.51907    2.26763    0    0    0
     205       69        1 -0.84760000    8.05634   24.43100   21.19731    0    0    0
     206       69        2  0.42380000    8.17762   24.38965   22.14589    0    0    0
     207       69        2  0.42380000    7.67119   25.29342   21.04198    0    0    0
     208       70        1 -0.84760000   26.83069    5.65665   21.19731    0    0    0
     209       70        2  0.42380000   26.95197    5.61530   22.14589    0    0    0
     210       70        2  0.42380000   26.44554    6.51907   21.04198    0    0    0
     211       71        1 -0.84760000    6.08506   26.53084   13.49725    0    0    0
     212       71        2  0.42380000    5.78077   27.41004   13.72228    0    0    0
     213       71        2  0.42380000    7.03971   26.59082   13.53299    0    0    0
     214       72        1 -0.84760000    6.08506    7.75649   13.49725    0    0    0
     215       72        2  0.42380000    5.78077    8.63569   13.72228    0    0    0
     216       72        2  0.42380000    7.03971    7.81647   13.53299    0    0    0
     217       73        1 -0.84760000    6.08506   26.53084   32.27160    0    0    0
     218       73        2  0.42380000    5.78077   27.41004   32.49663    0    0    0
     219       73        2  0.42380000    7.03971   26.59082   32.30734    0    0    0
     220       74        1 -0.84760000   24.85941    7.75649   32.27160    0    0    0
     221       74        2  0.42380000   24.55512    8.63569   32.49663    0    0    0
     222       74        2  0.42380000   25.81406    7.81647   32.30734    0    0    0
     223       75        1 -0.84760000   34.14639   29.73347    9.88657    0    0    0
     224       75        2  0.42380000   34.86630   30.22900    9.49618    0    0    0
     225       75        2  0.42380000   33.94457   29.05526    9.24196    0    0    0
     226       76        1 -0.84760000   34.14639   29.73347   28.66092    0    0    0
     227       76        2  0.42380000   34.86630   30.22900   28.27053    0    0    0
     228       76        2  0.42380000   33.94457   29.05526   28.01631    0    0    0
     229       77        1 -0.84760000   15.37204   10.95912   28.66092    0    0    0
     230       77        2  0.42380000   16.09195   11.45465   28.27053    0    0    0
     231       77        2  0.42380000   15.17022   10.28091   28.01631    0    0    0
     232       78        1 -0.84760000   15.37204   29.73347    9.88657    0    0    0
     233       78        2  0.42380000   16.09195   30.22900    9.49618    0    0    0
     234       78        2  0.42380000   15.17022   29.05526    9.24196    0    0    0
     235       79        1 -0.84760000   15.37204   10.95912    9.88657    0    0    0
     236       79        2  0.42380000   16.09195   11.45465    9.49618    0    0    0
     237       79        2  0.42380000   15.17022   10.28091    9.24196    0    0    0
     238       80        1 -0.84760000   34.14639   10.95912    9.88657    0    0    0
     239       80        2  0.42380000   34.86630   11.45465    9.49618    0    0    0
     240       80        2  0.42380000   33.94457   10.28091    9.24196    0    0    0
     241       81        1 -0.84760000   34.14639   10.95912   28.66092    0    0    0
     242       81        2  0.42380000   34.86630   11.45465   28.27053    0    0    0
     243       81        2  0.42380000   33.94457   10.28091   28.01631    0    0    0
     244       82        1 -0.84760000   24.11710   27.82954   17.52834    0    0    0
     245       82        2  0.42380000   23.81711   27.97525   16.63112    0    0    0
     246       82        2  0.42380000   24.88822   27.27007   17.43568    0    0    0
     247       83        1 -0.84760000   24.11710   27.82954   36.30269    0    0    0
     248       83        2  0.42380000   23.81711   27.97525   35.40547    0    0    0
     249       83        2  0.42380000   24.88822   27.27007   36.21003    0    0    0
     250       84        1 -0.84760000    5.34275    9.05519   36.30269    0    0    0
     251       84        2  0.42380000    5.04276    9.20090   35.40547    0    0    0
     252       84        2  0.42380000    6.11387    8.49572   36.21003    0    0    0
     253       85        1 -0.84760000    5.34275   27.82954   17.52834    0    0    0
     254       85        2  0.42380000    5.04276   27.97525   16.63112    0    0    0
     255       85        2  0.42380000    6.11387   27.27007   17.43568    0    0    0
     256       86        1 -0.84760000    5.34275   27.82954   36.30269    0    0    0
     257       86        2  0.42380000    5.04276   27.97525   35.40547    0    0    0
     258       86        2  0.42380000    6.11387   27.27007   36.21003    0    0    0
     259       87        1 -0.84760000   24.11710    9.05519   17.52834    0    0    0
     260       87        2  0.42380000   23.81711    9.20090   16.63112    0    0    0
     261       87        2  0.42380000   24.88822    8.49572   17.43568    0    0    0
     262       88        1 -0.84760000   24.11710    9.05519   36.30269    0    0    0
     263       88        2  0.42380000   23.81711    9.20090   35.40547    0    0    0
     264       88        2  0.42380000   24.88822    8.49572   36.21003    0    0    0
     265       89        1 -0.84760000   34.59365   26.81042    1.79371    0    0    0
     266       89        2  0.42380000   34.51002   27.24184    0.94335    0    0    0
     267       89        2  0.42380000   35.31307   27.27025    2.22639    0    0    0
     268       90        1 -0.84760000   34.59365   26.81042   20.56806    0    0    0
     269       90        2  0.42380000   34.51002   27.24184   19.71770    0    0    0
     270       90        2  0.42380000   35.31307   27.27025   21.00074    0    0    0
     271       91        1 -0.84760000   15.81930    8.03607   20.56806    0    0    0
     272       91        2  0.42380000   15.73567    8.46749   19.71770    0    0    0
     273       91        2  0.42380000   16.53872    8.49590   21.00074    0    0    0
     274       92        1 -0.84760000   15.81930   26.81042   20.56806    0    0    0
     275       92        2  0.42380000   15.73567   27.24184   19.71770    0    0    0
     276       92        2  0.42380000   16.53872   27.27025   21.00074    0    0    0
     277       93        1 -0.84760000   34.59365    8.03607    1.79371    0    0    0
     278       93        2  0.42380000   34.51002    8.46749    0.94335    0    0    0
     279       93        2  0.42380000   35.31307    8.49590    2.22639    0    0    0
     280       94        1 -0.84760000   34.59365    8.03607   20.56806    0    0    0
     281       94        2  0.42380000   34.51002    8.46749   19.71770    0    0    0
     282       94        2  0.42380000   35.31307    8.49590   21.00074    0    0    0
     283       95        1 -0.84760000   16.89671   29.26717   14.87071    0    0    0
     284       95        2  0.42380000   16.17153   29.86005   14.67365    0    0    0
     285       95        2  0.42380000   17.42426   29.25952   14.07204    0    0    0
     286       96        1 -0.84760000   16.89671   29.26717   33.64506    0    0    0
     287       96        2  0.42380000   16.17153   29.86005   33.44800    0    0    0
     288       96        2  0.42380000   17.42426   29.25952   32.84639    0    0    0
     289       97        1 -0.84760000   16.89671   10.49282   14.87071    0    0    0
     290       97        2  0.42380000   16.17153   11.08570   14.67365    0    0    0
     291       97        2  0.42380000   17.42426   10.48517   14.07204    0    0    0
     292       98        1 -0.84760000   35.67106   10.49282   33.64506    0    0    0
     293       98        2  0.42380000   34.94588   11.08570   33.44800    0    0    0
     294       98        2  0.42380000   36.19861   10.48517   32.84639    0    0    0
     295       99        1 -0.84760000   31.20102   30.99319    8.36909    0    0    0
     296       99        2  0.42380000   31.55340   30.39600    7.70923    0    0    0
     297       99        2  0.42380000   30.31725   30.66761    8.53992    0    0    0
     298      100        1 -0.84760000   31.20102   30.99319   27.14344    0    0    0
     299      100        2  0.42380000   31.55340   30.39600   26.48358    0    0    0
     300      100        2  0.42380000   30.31725   30.66761   27.31427    0    0    0
     301      101        1 -0.84760000   12.42667   12.21884   27.14344    0    0    0
     302      101        2  0.42380000   12.77905   11.62165   26.48358    0    0    0
     303      101        2  0.42380000   11.54290   11.89326   27.31427    0    0    0
     304      102        1 -0.84760000   12.42667   12.21884    8.36909    0    0    0
     305      102        2  0.42380000   12.77905   11.62165    7.70923    0    0    0
     306      102        2  0.42380000   11.54290   11.89326    8.53992    0    0    0
     307      103        1 -0.84760000   31.20102   12.21884   27.14344    0    0    0
     308      103        2  0.42380000   31.55340   11.62165   26.48358    0    0    0
     309      103        2  0.42380000   30.31725   11.89326   27.31427    0    0    0
     310      104        1 -0.84760000   34.01211   32.55629   19.83391    0    0    0
     311      104        2  0.42380000   33.78587   31.83933   20.42637    0    0    0
     312      104        2  0.42380000   33.62173   32.30753   18.99608    0    0    0
     313      105        1 -0.84760000   15.23776   13.78194   19.83391    0    0    0
     314      105        2  0.42380000   15.01152   13.06498   20.42637    0    0    0
     315      105        2  0.42380000   14.84738   13.53318   18.99608    0    0    0
     316      106        1 -0.84760000   15.23776   32.55629    1.05956    0    0    0
     317      106        2  0.42380000   15.01152   31.83933    1.65202    0    0    0
     318      106        2  0.42380000   14.84738   32.30753    0.22173    0    0    0
     319      107        1 -0.84760000   15.23776   32.55629   19.83391    0    0    0
     320      107        2  0.42380000   15.01152   31.83933   20.42637    0    0    0
     321      107        2  0.42380000   14.84738   32.30753   18.99608    0    0    0
     322      108        1 -0.84760000   34.01211   13.78194   19.83391    0    0    0
     323      108        2  0.42380000   33.78587   13.06498   20.42637    0    0    0
     324      108        2  0.42380000   33.62173   13.53318   18.99608    0    0    0
     325      109        1 -0.84760000    1.01936   17.80863    1.83400    0    0    0
     326      109        2  0.42380000    1.37913   18.40756    1.17973    0    0    0
     327      109        2  0.42380000    0.87860   18.35462    2.60751    0    0    0
     328      110        1 -0.84760000   19.79371   17.80863    1.83400    0    0    0
     329      110        2  0.42380000   20.15348   18.40756    1.17973    0    0    0
     330      110        2  0.42380000   19.65295   18.35462    2.60751    0    0    0
     331      111        1 -0.84760000   19.79371   17.80863   20.60835    0    0    0
     332      111        2  0.42380000   20.15348   18.40756   19.95408    0    0    0
     333      111        2  0.42380000   19.65295   18.35462   21.38186    0    0    0
     334      112        1 -0.84760000   27.94472   26.00663   32.06988    0    0    0
     335      112        2  0.42380000   28.44324   26.48121   32.73507    0    0    0
     336      112        2  0.42380000   28.08701   25.08298   32.27689    0    0    0