Created by /home/xiruan/ATLAS-toolkit/scripts/createLammpsInput.pl on Fri Jan  3 01:22:41 2025

         969 atoms
         526 bonds
         263 angles

           4 atom types
           1 bond types
           1 angle types

		   0.000000  37.548700 xlo xhi
		   0.000000  37.548700 ylo yhi
		   0.000000  37.548700 zlo zhi

Masses

    1 1.5999E+01 # OW     
    2 1.0080E+00 # HW     
    3 6.9400E+00 # Li+    
    4 3.5450E+01 # Cl-    

Pair Coeffs

    1    0.15550    3.16599 # OW OW 
    2    0.00000    1.00000 # HW HW 
    3    0.33673    1.40940 # Li+ Li+ 
    4    0.01278    4.83045 # Cl- Cl- 

Bond Coeffs

    1     5530        1 # HW OW 

Angle Coeffs

    1     1000   109.47 # HW OW HW 

Atoms

       1        1        1 -0.84760000   11.96039    8.35310    7.66648    0    0    0
       2        2        1 -0.84760000   11.96039   27.12745    7.66648    0    0    0
       3        2        2  0.42380000   11.87980   26.21291    7.39565    0    0    0
       4        2        2  0.42380000   11.54684   27.62416    6.96045    0    0    0
       5        3        1 -0.84760000   11.96039   27.12745   26.44083    0    0    0
       6        3        2  0.42380000   11.87980   26.21291   26.17000    0    0    0
       7        3        2  0.42380000   11.54684   27.62416   25.73480    0    0    0
       8        4        1 -0.84760000   30.73474    8.35310   26.44083    0    0    0
       9        5        1 -0.84760000   30.73474   27.12745    7.66648    0    0    0
      10        4        2  0.42380000   30.65415    7.43856   26.17000    0    0    0
      11        4        2  0.42380000   30.32119    8.84981   25.73480    0    0    0
      12        5        2  0.42380000   30.65415   26.21291    7.39565    0    0    0
      13        5        2  0.42380000   30.32119   27.62416    6.96045    0    0    0
      14        6        1 -0.84760000   11.96039    8.35310   26.44083    0    0    0
      15        6        2  0.42380000   11.87980    7.43856   26.17000    0    0    0
      16        6        2  0.42380000   11.54684    8.84981   25.73480    0    0    0
      17        1        2  0.42380000   11.87980    7.43856    7.39565    0    0    0
      18        1        2  0.42380000   11.54684    8.84981    6.96045    0    0    0
      19        7        1 -0.84760000   28.86655   28.90536    9.54740    0    0    0
      20        7        2  0.42380000   28.09076   28.42540    9.83726    0    0    0
      21        7        2  0.42380000   29.51784   28.22592    9.37302    0    0    0
      22        8        1 -0.84760000   10.09220   10.13101   28.32175    0    0    0
      23        8        2  0.42380000    9.31641    9.65105   28.61161    0    0    0
      24        8        2  0.42380000   10.74349    9.45157   28.14737    0    0    0
      25        9        1 -0.84760000   10.09220   28.90536    9.54740    0    0    0
      26        9        2  0.42380000    9.31641   28.42540    9.83726    0    0    0
      27        9        2  0.42380000   10.74349   28.22592    9.37302    0    0    0
      28       10        1 -0.84760000   10.09220   10.13101    9.54740    0    0    0
      29       10        2  0.42380000    9.31641    9.65105    9.83726    0    0    0
      30       11        1 -0.84760000   10.09220   28.90536   28.32175    0    0    0
      31       11        2  0.42380000    9.31641   28.42540   28.61161    0    0    0
      32       11        2  0.42380000   10.74349   28.22592   28.14737    0    0    0
      33       10        2  0.42380000   10.74349    9.45157    9.37302    0    0    0
      34       12        1 -0.84760000   28.86655   10.13101    9.54740    0    0    0
      35       12        2  0.42380000   28.09076    9.65105    9.83726    0    0    0
      36       12        2  0.42380000   29.51784    9.45157    9.37302    0    0    0
      37       13        1 -0.84760000   28.86655   10.13101   28.32175    0    0    0
      38       13        2  0.42380000   28.09076    9.65105   28.61161    0    0    0
      39       13        2  0.42380000   29.51784    9.45157   28.14737    0    0    0
      40       14        1 -0.84760000    0.48128   26.77809   28.86754    0    0    0
      41       14        2  0.42380000    1.05289   26.01031   28.86790    0    0    0
      42       14        2  0.42380000    0.48143   27.07697   27.95820    0    0    0
      43       15        1 -0.84760000    0.48128    8.00374   10.09319    0    0    0
      44       15        2  0.42380000    1.05289    7.23596   10.09355    0    0    0
      45       16        1 -0.84760000   19.25563    8.00374   28.86754    0    0    0
      46       16        2  0.42380000   19.82724    7.23596   28.86790    0    0    0
      47       16        2  0.42380000   19.25578    8.30262   27.95820    0    0    0
      48       15        2  0.42380000    0.48143    8.30262    9.18385    0    0    0
      49       17        1 -0.84760000   10.33927   16.82283    7.94772    0    0    0
      50       18        1 -0.84760000   29.11362   35.59718    7.94772    0    0    0
      51       18        2  0.42380000   28.49477   36.05293    7.37716    0    0    0
      52       18        2  0.42380000   29.96880   35.75232    7.54669    0    0    0
      53       17        2  0.42380000    9.72042   17.27858    7.37716    0    0    0
      54       19        1 -0.84760000   29.11362   35.59718   26.72207    0    0    0
      55       19        2  0.42380000   28.49477   36.05293   26.15151    0    0    0
      56       19        2  0.42380000   29.96880   35.75232   26.32104    0    0    0
      57       17        2  0.42380000   11.19445   16.97797    7.54669    0    0    0
      58       20        1 -0.84760000   10.33927   16.82283   26.72207    0    0    0
      59       20        2  0.42380000    9.72042   17.27858   26.15151    0    0    0
      60       20        2  0.42380000   11.19445   16.97797   26.32104    0    0    0
      61       21        1 -0.84760000   10.33927   35.59718    7.94772    0    0    0
      62       21        2  0.42380000    9.72042   36.05293    7.37716    0    0    0
      63       21        2  0.42380000   11.19445   35.75232    7.54669    0    0    0
      64       22        1 -0.84760000   10.33927   35.59718   26.72207    0    0    0
      65       22        2  0.42380000    9.72042   36.05293   26.15151    0    0    0
      66       22        2  0.42380000   11.19445   35.75232   26.32104    0    0    0
      67       23        1 -0.84760000    4.69411   22.76068   24.01741    0    0    0
      68       23        2  0.42380000    4.80079   23.66105   24.32428    0    0    0
      69       23        2  0.42380000    3.78335   22.71247   23.72687    0    0    0
      70       24        1 -0.84760000    6.53489    6.95496   28.34993    0    0    0
      71       24        2  0.42380000    7.04271    7.45306   28.99043    0    0    0
      72       24        2  0.42380000    7.06621    6.17848   28.17386    0    0    0
      73       25        1 -0.84760000    6.53489   25.72931    9.57558    0    0    0
      74       25        2  0.42380000    7.04271   26.22741   10.21608    0    0    0
      75       25        2  0.42380000    7.06621   24.95283    9.39951    0    0    0
      76       26        1 -0.84760000    6.53489   25.72931   28.34993    0    0    0
      77       26        2  0.42380000    7.04271   26.22741   28.99043    0    0    0
      78       26        2  0.42380000    7.06621   24.95283   28.17386    0    0    0
      79       27        1 -0.84760000   25.30924    6.95496    9.57558    0    0    0
      80       27        2  0.42380000   25.81706    7.45306   10.21608    0    0    0
      81       27        2  0.42380000   25.84056    6.17848    9.39951    0    0    0
      82       28        1 -0.84760000   25.30924    6.95496   28.34993    0    0    0
      83       28        2  0.42380000   25.81706    7.45306   28.99043    0    0    0
      84       28        2  0.42380000   25.84056    6.17848   28.17386    0    0    0
      85       29        1 -0.84760000   25.30924   25.72931   28.34993    0    0    0
      86       29        2  0.42380000   25.81706   26.22741   28.99043    0    0    0
      87       29        2  0.42380000   25.84056   24.95283   28.17386    0    0    0
      88       30        1 -0.84760000    6.53489    6.95496    9.57558    0    0    0
      89       30        2  0.42380000    7.04271    7.45306   10.21608    0    0    0
      90       30        2  0.42380000    7.06621    6.17848    9.39951    0    0    0
      91       31        1 -0.84760000   37.41033   23.89983   13.27851    0    0    0
      92       31        2  0.42380000   36.70555   24.28800   12.76002    0    0    0
      93       31        2  0.42380000   37.67612   24.59486   13.88060    0    0    0
      94       32        1 -0.84760000   18.63598    5.12548   32.05286    0    0    0
      95       32        2  0.42380000   17.93120    5.51365   31.53437    0    0    0
      96       32        2  0.42380000   18.90177    5.82051   32.65495    0    0    0
      97       33        1 -0.84760000   18.63598   23.89983   13.27851    0    0    0
      98       33        2  0.42380000   17.93120   24.28800   12.76002    0    0    0
      99       33        2  0.42380000   18.90177   24.59486   13.88060    0    0    0
     100       34        1 -0.84760000   18.63598   23.89983   32.05286    0    0    0
     101       34        2  0.42380000   17.93120   24.28800   31.53437    0    0    0
     102       34        2  0.42380000   18.90177   24.59486   32.65495    0    0    0
     103       35        1 -0.84760000   37.41033    5.12548   13.27851    0    0    0
     104       35        2  0.42380000   36.70555    5.51365   12.76002    0    0    0
     105       35        2  0.42380000   37.67612    5.82051   13.88060    0    0    0
     106       36        1 -0.84760000   37.41033    5.12548   32.05286    0    0    0
     107       36        2  0.42380000   36.70555    5.51365   31.53437    0    0    0
     108       36        2  0.42380000   37.67612    5.82051   32.65495    0    0    0
     109       37        1 -0.84760000   24.84313   30.00869   12.01927    0    0    0
     110       37        2  0.42380000   24.51007   30.63558   12.66137    0    0    0
     111       37        2  0.42380000   25.01980   30.53487   11.23943    0    0    0
     112       38        1 -0.84760000   24.84313   30.00869   30.79362    0    0    0
     113       38        2  0.42380000   24.51007   30.63558   31.43572    0    0    0
     114       38        2  0.42380000   25.01980   30.53487   30.01378    0    0    0
     115       39        1 -0.84760000    6.06878   11.23434   30.79362    0    0    0
     116       39        2  0.42380000    5.73572   11.86123   31.43572    0    0    0
     117       39        2  0.42380000    6.24545   11.76052   30.01378    0    0    0
     118       40        1 -0.84760000    6.06878   30.00869   12.01927    0    0    0
     119       40        2  0.42380000    5.73572   30.63558   12.66137    0    0    0
     120       40        2  0.42380000    6.24545   30.53487   11.23943    0    0    0
     121       41        1 -0.84760000    6.06878   30.00869   30.79362    0    0    0
     122       41        2  0.42380000    5.73572   30.63558   31.43572    0    0    0
     123       41        2  0.42380000    6.24545   30.53487   30.01378    0    0    0
     124       42        1 -0.84760000   24.84313   11.23434   30.79362    0    0    0
     125       42        2  0.42380000   24.51007   11.86123   31.43572    0    0    0
     126       42        2  0.42380000   25.01980   11.76052   30.01378    0    0    0
     127       43        1 -0.84760000   23.27438   22.08016   30.62331    0    0    0
     128       43        2  0.42380000   23.61606   22.92437   30.32870    0    0    0
     129       43        2  0.42380000   22.33596   22.22854   30.73985    0    0    0
     130       44        1 -0.84760000    4.50003    3.30581   11.84896    0    0    0
     131       44        2  0.42380000    4.84171    4.15002   11.55435    0    0    0
     132       44        2  0.42380000    3.56161    3.45419   11.96550    0    0    0
     133       45        1 -0.84760000    4.50003   22.08016   30.62331    0    0    0
     134       45        2  0.42380000    4.84171   22.92437   30.32870    0    0    0
     135       45        2  0.42380000    3.56161   22.22854   30.73985    0    0    0
     136       46        1 -0.84760000   23.27438    3.30581   30.62331    0    0    0
     137       46        2  0.42380000   23.61606    4.15002   30.32870    0    0    0
     138       46        2  0.42380000   22.33596    3.45419   30.73985    0    0    0
     139       47        1 -0.84760000   26.95717   19.56839    8.17342    0    0    0
     140       47        2  0.42380000   27.26467   19.01308    7.45697    0    0    0
     141       47        2  0.42380000   26.02724   19.70284    7.99072    0    0    0
     142       48        1 -0.84760000   26.95717   19.56839   26.94777    0    0    0
     143       48        2  0.42380000   27.26467   19.01308   26.23132    0    0    0
     144       48        2  0.42380000   26.02724   19.70284   26.76507    0    0    0
     145       49        1 -0.84760000    8.18282    0.79404   26.94777    0    0    0
     146       49        2  0.42380000    8.49032    0.23873   26.23132    0    0    0
     147       49        2  0.42380000    7.25289    0.92849   26.76507    0    0    0
     148       50        1 -0.84760000    8.18282    0.79404    8.17342    0    0    0
     149       50        2  0.42380000    8.49032    0.23873    7.45697    0    0    0
     150       50        2  0.42380000    7.25289    0.92849    7.99072    0    0    0
     151       51        1 -0.84760000   26.95717    0.79404    8.17342    0    0    0
     152       51        2  0.42380000   27.26467    0.23873    7.45697    0    0    0
     153       51        2  0.42380000   26.02724    0.92849    7.99072    0    0    0
     154       52        1 -0.84760000   17.07908   28.58683   30.65840    0    0    0
     155       52        2  0.42380000   16.25094   28.65614   30.18342    0    0    0
     156       52        2  0.42380000   17.67413   29.17226   30.18999    0    0    0
     157       53        1 -0.84760000   35.85343    9.81248   11.88405    0    0    0
     158       53        2  0.42380000   35.02529    9.88179   11.40907    0    0    0
     159       53        2  0.42380000   36.44848   10.39791   11.41564    0    0    0
     160       54        1 -0.84760000   35.85343    9.81248   30.65840    0    0    0
     161       54        2  0.42380000   35.02529    9.88179   30.18342    0    0    0
     162       54        2  0.42380000   36.44848   10.39791   30.18999    0    0    0
     163       55        1 -0.84760000   24.51092   31.58467   16.50611    0    0    0
     164       55        2  0.42380000   23.61378   31.80867   16.75345    0    0    0
     165       55        2  0.42380000   24.53621   31.70817   15.55725    0    0    0
     166       56        1 -0.84760000   24.51092   31.58467   35.28046    0    0    0
     167       56        2  0.42380000   23.61378   31.80867   35.52780    0    0    0
     168       56        2  0.42380000   24.53621   31.70817   34.33160    0    0    0
     169       57        1 -0.84760000    5.73657   12.81032   35.28046    0    0    0
     170       57        2  0.42380000    4.83943   13.03432   35.52780    0    0    0
     171       57        2  0.42380000    5.76186   12.93382   34.33160    0    0    0
     172       58        1 -0.84760000    5.73657   12.81032   16.50611    0    0    0
     173       58        2  0.42380000    4.83943   13.03432   16.75345    0    0    0
     174       58        2  0.42380000    5.76186   12.93382   15.55725    0    0    0
     175       59        1 -0.84760000    5.73657   31.58467   35.28046    0    0    0
     176       59        2  0.42380000    4.83943   31.80867   35.52780    0    0    0
     177       59        2  0.42380000    5.76186   31.70817   34.33160    0    0    0
     178       60        1 -0.84760000   24.51092   12.81032   16.50611    0    0    0
     179       60        2  0.42380000   23.61378   13.03432   16.75345    0    0    0
     180       60        2  0.42380000   24.53621   12.93382   15.55725    0    0    0
     181       61        1 -0.84760000   19.28991   30.22576   10.99894    0    0    0
     182       61        2  0.42380000   19.36795   30.36064   10.05451    0    0    0
     183       61        2  0.42380000   19.90408   29.51735   11.19175    0    0    0
     184       62        1 -0.84760000   19.28991   30.22576   29.77329    0    0    0
     185       62        2  0.42380000   19.36795   30.36064   28.82886    0    0    0
     186       62        2  0.42380000   19.90408   29.51735   29.96610    0    0    0
     187       63        1 -0.84760000    0.51556   11.45141   29.77329    0    0    0
     188       63        2  0.42380000    0.59360   11.58629   28.82886    0    0    0
     189       63        2  0.42380000    1.12973   10.74300   29.96610    0    0    0
     190       64        1 -0.84760000    0.51556   30.22576   29.77329    0    0    0
     191       64        2  0.42380000    0.59360   30.36064   28.82886    0    0    0
     192       64        2  0.42380000    1.12973   29.51735   29.96610    0    0    0
     193       65        1 -0.84760000   19.28991   11.45141   10.99894    0    0    0
     194       65        2  0.42380000   19.36795   11.58629   10.05451    0    0    0
     195       65        2  0.42380000   19.90408   10.74300   11.19175    0    0    0
     196       66        1 -0.84760000   20.53467   31.92578   26.18390    0    0    0
     197       66        2  0.42380000   20.12748   32.06724   25.32926    0    0    0
     198       66        2  0.42380000   21.42597   31.64180   25.98102    0    0    0
     199       67        1 -0.84760000    1.76032   13.15143   26.18390    0    0    0
     200       67        2  0.42380000    1.35313   13.29289   25.32926    0    0    0
     201       67        2  0.42380000    2.65162   12.86745   25.98102    0    0    0
     202       68        1 -0.84760000    1.76032   31.92578   26.18390    0    0    0
     203       68        2  0.42380000    1.35313   32.06724   25.32926    0    0    0
     204       68        2  0.42380000    2.65162   31.64180   25.98102    0    0    0
     205       69        1 -0.84760000   20.53467   13.15143   26.18390    0    0    0
     206       69        2  0.42380000   20.12748   13.29289   25.32926    0    0    0
     207       69        2  0.42380000   21.42597   12.86745   25.98102    0    0    0
     208       70        1 -0.84760000   12.82126   35.49553    6.37931    0    0    0
     209       70        2  0.42380000   13.27695   34.71447    6.69317    0    0    0
     210       70        2  0.42380000   13.16051   36.20621    6.92343    0    0    0
     211       71        1 -0.84760000   31.59561   16.72118    6.37931    0    0    0
     212       71        2  0.42380000   32.05130   15.94012    6.69317    0    0    0
     213       71        2  0.42380000   31.93486   17.43186    6.92343    0    0    0
     214       72        1 -0.84760000   31.59561   16.72118   25.15366    0    0    0
     215       72        2  0.42380000   32.05130   15.94012   25.46752    0    0    0
     216       72        2  0.42380000   31.93486   17.43186   25.69778    0    0    0
     217       73        1 -0.84760000   19.34586   31.26718   32.31273    0    0    0
     218       73        2  0.42380000   19.50897   30.79771   31.49467    0    0    0
     219       73        2  0.42380000   19.81111   30.75953   32.97762    0    0    0
     220       74        1 -0.84760000    0.57151   12.49283   32.31273    0    0    0
     221       74        2  0.42380000    0.73462   12.02336   31.49467    0    0    0
     222       74        2  0.42380000    1.03676   11.98518   32.97762    0    0    0
     223       75        1 -0.84760000    0.57151   12.49283   13.53838    0    0    0
     224       75        2  0.42380000    0.73462   12.02336   12.72032    0    0    0
     225       75        2  0.42380000    1.03676   11.98518   14.20327    0    0    0
     226       76        1 -0.84760000    0.57151   31.26718   32.31273    0    0    0
     227       76        2  0.42380000    0.73462   30.79771   31.49467    0    0    0
     228       76        2  0.42380000    1.03676   30.75953   32.97762    0    0    0
     229       77        1 -0.84760000   19.34586   12.49283   13.53838    0    0    0
     230       77        2  0.42380000   19.50897   12.02336   12.72032    0    0    0
     231       77        2  0.42380000   19.81111   11.98518   14.20327    0    0    0
     232       78        1 -0.84760000   19.34586   12.49283   32.31273    0    0    0
     233       78        2  0.42380000   19.50897   12.02336   31.49467    0    0    0
     234       78        2  0.42380000   19.81111   11.98518   32.97762    0    0    0
     235       79        1 -0.84760000   24.11774   20.39775    8.57444    0    0    0
     236       79        2  0.42380000   23.67455   21.17871    8.24289    0    0    0
     237       79        2  0.42380000   24.67624   20.72074    9.28153    0    0    0
     238       80        1 -0.84760000    5.34339    1.62340   27.34879    0    0    0
     239       80        2  0.42380000    4.90020    2.40436   27.01724    0    0    0
     240       80        2  0.42380000    5.90189    1.94639   28.05588    0    0    0
     241       81        1 -0.84760000    5.34339   20.39775    8.57444    0    0    0
     242       81        2  0.42380000    4.90020   21.17871    8.24289    0    0    0
     243       81        2  0.42380000    5.90189   20.72074    9.28153    0    0    0
     244       82        1 -0.84760000    5.34339   20.39775   27.34879    0    0    0
     245       82        2  0.42380000    4.90020   21.17871   27.01724    0    0    0
     246       82        2  0.42380000    5.90189   20.72074   28.05588    0    0    0
     247       83        1 -0.84760000   24.11774    1.62340    8.57444    0    0    0
     248       83        2  0.42380000   23.67455    2.40436    8.24289    0    0    0
     249       83        2  0.42380000   24.67624    1.94639    9.28153    0    0    0
     250       84        1 -0.84760000   31.13894   25.52745   23.67598    0    0    0
     251       84        2  0.42380000   30.53983   26.25103   23.49234    0    0    0
     252       84        2  0.42380000   31.68690   25.46513   22.89362    0    0    0
     253       85        1 -0.84760000   12.36459    6.75310   23.67598    0    0    0
     254       85        2  0.42380000   11.76548    7.47668   23.49234    0    0    0
     255       85        2  0.42380000   12.91255    6.69078   22.89362    0    0    0
     256       86        1 -0.84760000   12.36459    6.75310    4.90163    0    0    0
     257       86        2  0.42380000   11.76548    7.47668    4.71799    0    0    0
     258       86        2  0.42380000   12.91255    6.69078    4.11927    0    0    0
     259       87        1 -0.84760000   31.13894    6.75310    4.90163    0    0    0
     260       87        2  0.42380000   30.53983    7.47668    4.71799    0    0    0
     261       87        2  0.42380000   31.68690    6.69078    4.11927    0    0    0
     262       88        1 -0.84760000   31.13894    6.75310   23.67598    0    0    0
     263       88        2  0.42380000   30.53983    7.47668   23.49234    0    0    0
     264       88        2  0.42380000   31.68690    6.69078   22.89362    0    0    0
     265       89        1 -0.84760000    0.00749    1.97953   27.92933    0    0    0
     266       89        2  0.42380000   -0.28120    2.54982   28.64182    0    0    0
     267       89        2  0.42380000    0.75207    1.49998   28.29245    0    0    0
     268       90        1 -0.84760000    0.00749   20.75388    9.15498    0    0    0
     269       90        2  0.42380000   -0.28120   21.32417    9.86747    0    0    0
     270       90        2  0.42380000    0.75207   20.27433    9.51810    0    0    0
     271       91        1 -0.84760000    0.00749    1.97953    9.15498    0    0    0
     272       91        2  0.42380000   -0.28120    2.54982    9.86747    0    0    0
     273       91        2  0.42380000    0.75207    1.49998    9.51810    0    0    0
     274       92        1 -0.84760000   18.78184    1.97953    9.15498    0    0    0
     275       92        2  0.42380000   18.49315    2.54982    9.86747    0    0    0
     276       92        2  0.42380000   19.52642    1.49998    9.51810    0    0    0
     277       93        1 -0.84760000   18.78184    1.97953   27.92933    0    0    0
     278       93        2  0.42380000   18.49315    2.54982   28.64182    0    0    0
     279       93        2  0.42380000   19.52642    1.49998   28.29245    0    0    0
     280       94        1 -0.84760000    0.19451   24.69589    0.36525    0    0    0
     281       94        2  0.42380000    0.11198   25.63897    0.50675    0    0    0
     282       94        2  0.42380000   -0.15718   24.55338   -0.51352    0    0    0
     283       95        1 -0.84760000   18.96886    5.92154    0.36525    0    0    0
     284       95        2  0.42380000   18.88633    6.86462    0.50675    0    0    0
     285       95        2  0.42380000   18.61717    5.77903   -0.51352    0    0    0
     286       96        1 -0.84760000   18.96886    5.92154   19.13960    0    0    0
     287       96        2  0.42380000   18.88633    6.86462   19.28110    0    0    0
     288       96        2  0.42380000   18.61717    5.77903   18.26083    0    0    0
     289       97        1 -0.84760000   30.79353   22.20774   29.21368    0    0    0
     290       97        2  0.42380000   30.81080   22.65861   30.05786    0    0    0
     291       97        2  0.42380000   30.54509   21.30831   29.42702    0    0    0
     292       98        1 -0.84760000   12.01918    3.43339   29.21368    0    0    0
     293       98        2  0.42380000   12.03645    3.88426   30.05786    0    0    0
     294       98        2  0.42380000   11.77074    2.53396   29.42702    0    0    0
     295       99        1 -0.84760000   12.01918   22.20774   10.43933    0    0    0
     296       99        2  0.42380000   12.03645   22.65861   11.28351    0    0    0
     297       99        2  0.42380000   11.77074   21.30831   10.65267    0    0    0
     298      100        1 -0.84760000   12.01918   22.20774   29.21368    0    0    0
     299      100        2  0.42380000   12.03645   22.65861   30.05786    0    0    0
     300      100        2  0.42380000   11.77074   21.30831   29.42702    0    0    0
     301      101        1 -0.84760000   30.79353    3.43339   10.43933    0    0    0
     302      101        2  0.42380000   30.81080    3.88426   11.28351    0    0    0
     303      101        2  0.42380000   30.54509    2.53396   10.65267    0    0    0
     304      102        1 -0.84760000   30.79353    3.43339   29.21368    0    0    0
     305      102        2  0.42380000   30.81080    3.88426   30.05786    0    0    0
     306      102        2  0.42380000   30.54509    2.53396   29.42702    0    0    0
     307      103        1 -0.84760000   34.22060   19.62096   16.27797    0    0    0
     308      103        2  0.42380000   34.54518   18.88993   16.80376    0    0    0
     309      103        2  0.42380000   34.25625   19.30233   15.37607    0    0    0
     310      104        1 -0.84760000   15.44625    0.84661   35.05232    0    0    0
     311      104        2  0.42380000   15.77083    0.11558   35.57811    0    0    0
     312      104        2  0.42380000   15.48190    0.52798   34.15042    0    0    0
     313      105        1 -0.84760000   15.44625   19.62096   35.05232    0    0    0
     314      105        2  0.42380000   15.77083   18.88993   35.57811    0    0    0
     315      105        2  0.42380000   15.48190   19.30233   34.15042    0    0    0
     316      106        1 -0.84760000   15.44625    0.84661   16.27797    0    0    0
     317      106        2  0.42380000   15.77083    0.11558   16.80376    0    0    0
     318      106        2  0.42380000   15.48190    0.52798   15.37607    0    0    0
     319      107        1 -0.84760000   34.22060    0.84661   16.27797    0    0    0
     320      107        2  0.42380000   34.54518    0.11558   16.80376    0    0    0
     321      107        2  0.42380000   34.25625    0.52798   15.37607    0    0    0
     322      108        1 -0.84760000   34.22060    0.84661   35.05232    0    0    0
     323      108        2  0.42380000   34.54518    0.11558   35.57811    0    0    0
     324      108        2  0.42380000   34.25625    0.52798   34.15042    0    0    0
     325      109        1 -0.84760000   32.32222   25.49923    2.32572    0    0    0
     326      109        2  0.42380000   33.21018   25.81096    2.15086    0    0    0
     327      109        2  0.42380000   32.29273   24.62646    1.93378    0    0    0
     328      110        1 -0.84760000   13.54787   25.49923    2.32572    0    0    0
     329      110        2  0.42380000   14.43583   25.81096    2.15086    0    0    0
     330      110        2  0.42380000   13.51838   24.62646    1.93378    0    0    0
     331      111        1 -0.84760000   32.32222    6.72488    2.32572    0    0    0
     332      111        2  0.42380000   33.21018    7.03661    2.15086    0    0    0
     333      111        2  0.42380000   32.29273    5.85211    1.93378    0    0    0
     334      112        1 -0.84760000   32.32222    6.72488   21.10007    0    0    0
     335      112        2  0.42380000   33.21018    7.03661   20.92521    0    0    0
     336      112        2  0.42380000   32.29273    5.85211   20.70813    0    0    0